
 *******************************************************************************
 *                                                                             *
 *  --------------------------------                                           *
 *   Amsterdam Modeling Suite (AMS)              2019.303                      *
 *  --------------------------------                                           *
 *                                               r81909 2020-02-21             *
 *                                                                             *
 *                                                                             *
 *                            =====================                            *
 *                            |                   |                            *
 *                            |     D I R A C     |                            *
 *                            |                   |                            *
 *                            =====================                            *
 *                                                                             *
 *                                                                             *
 *   Online information and documentation:  https://www.scm.com/support/       *
 *   E-mail:  support@scm.com   info@scm.com                                   *
 *                                                                             *
 *   Scientific publications using AMS results must be properly referenced     *
 *   See the User Manuals (or the web site) for recommended citations          *
 *   The terms and conditions of the End User License Agreement apply to       *
 *   the use of AMS, https://www.scm.com/license-terms/                        *
 *                                                                             *
 *********************  x86_64_windows_intel / intelmpi  ***********************
 
 Licensed to: Student project account / Theoretische chemie, Vrije Universiteit / Amsterdam / NETHERLANDS
 SCM User ID: u20153
  
 DIRAC 2019.303  RunTime: Apr01-2020 23:32:36  Nodes: 1  Procs: 1

 Temporary files are created in D:\SCMTMP\/kid_0.383945808
1
 HYDROGEN ATOM RELATIVISTIC, Point Nuc, A and c from libtc   
 N J RN H ZN XION ANUC CLIGHT
 5000    1100.00000000197.36710137  1.00000000  0.00000000    1.007825  0.1370360E+03
  PH   PHI     EPS        DEL        DELRVR
  0.30  0.30     2500.00  0.00001000  0.00001000
 IDIRC  NC1  NDEBU NPRIN  IPUN IRCOR IWCOR
   1   300     0     0     0     0     0
   XALPHA      XLATTER      RNUC
  0.70000000  0.00000000  0.00000000 Point Charge
   XN   XL   XJ      XE          XZ      XDELL
  1.0  0.0  0.5      -1.000       1.000     0.00000
 ICORP=  0  NPCL=  0  DEMP=0.00  PEPS=0.000000
 R(1)=  0.1000000E-08 D=  0.1005080E+01 RNUC=  0.0000000E+00
 converged at cycle   32  DENSITY AVERAGING    0.2400
  MAXIMUM ERROR IN R.V(R) IS   0.79874357E-05
 Q,EY,EV,EZ,ESUM,ETOT,RHO  0.100000E+01 -0.266614E+00 -0.619969E+00 -0.910779E+00 -0.203940E+00 -0.415998E+00  0.337036E-17


 DIRAC CALCULATION
1                    HYDROGEN ATOM RELATIVISTIC, Point Nuc, A and c from libtc


 EXCHANGE COEFFICIENT=  0.7000000           TAIL CORRECTION=  0.           NUCLEAR RADIUS=  0.000E+00
0                       ORBITAL    N    L    J     ELECTRONS     EIGENVALUE                DELTA OF EIGENV.

                          1S1/2  1.0  0.0  0.5     1.000       -0.2039397E+00                 0.2720093E-06


                                        NUCLEAR CHARGE=    1.000000
                            INTEGRAL OF CHARGE DENSITY=    1.000000
                           SUM OF THE ORBITAL ENERGIES=     -0.2039
                                          TOTAL ENERGY=     -0.4160
                                        KINETIC ENERGY=      0.4160
                             NUCLEAR ATTRACTION ENERGY=     -0.9108
                             ELECTRON REPULSION ENERGY=      0.2787
                                       EXCHANGE ENERGY=     -0.2000

 *******************************************************************************

                             D I R A C   E X I T
 NORMAL TERMINATION



 =================
 Timing Statistics
 =================
  
 Total Used :                     CPU=        0.09      System=        0.00     Elapsed=        0.11

 Calls  Section                     ( Mean, Percentage )
 ---------------------------------------------------------------------------------------------------
     2  ><      ................      0.00    0.00             0.00    0.00             0.00    0.00
     1  EXIT PROCEDURE .........      0.09  100.00             0.00    0.00             0.11  100.00


 Currently Open Files (EXIT00)
 ====================

 Unit    Access Format  Status   Type       Ident (file)
 -------------------------------------------------------
   3      SEQ    FORM   TRANSP  NORMAL      LOGFILE
                                          ( logfile )
 
Create H   file=DZP-H
XC
  GGA PBE
End
relativistic ZORA
Corepotentials t12.rel
End

 *******************************************************************************
 *                                                                             *
 *  --------------------------------                                           *
 *   Amsterdam Modeling Suite (AMS)              2019.303                      *
 *  --------------------------------                                           *
 *                                               r81909 2020-02-21             *
 *                                                                             *
 *                                                                             *
 *                              =================                              *
 *                              |               |                              *
 *                              |     A D F     |                              *
 *                              |               |                              *
 *                              =================                              *
 *                                                                             *
 *                                                                             *
 *   Online information and documentation:  https://www.scm.com/support/       *
 *   E-mail:  support@scm.com   info@scm.com                                   *
 *                                                                             *
 *   Scientific publications using AMS results must be properly referenced     *
 *   See the User Manuals (or the web site) for recommended citations          *
 *   The terms and conditions of the End User License Agreement apply to       *
 *   the use of AMS, https://www.scm.com/license-terms/                        *
 *                                                                             *
 *********************  x86_64_windows_intel / intelmpi  ***********************
 
 Licensed to: Student project account / Theoretische chemie, Vrije Universiteit / Amsterdam / NETHERLANDS
 SCM User ID: u20153
  
 ADF 2019.303  RunTime: Apr01-2020 23:32:37  Nodes: 1  Procs: 1

 Temporary files are created in D:\SCMTMP\/kid_0.845265986
 Hydrogen (DZP)



 ===========================
 A T T A C H E D   F I L E S
 ===========================
  
 CREATE - Data File:    DZP-H
                        Hydrogen (DZP)
 Core Potentials:
         file : t12.rel



 ===============================
 M O D E L   P A R A M E T E R S
 ===============================
  
 DENSITY FUNCTIONAL POTENTIAL (scf)
    LDA:                               PW92                                    == Not Default ==
    Gradient Corrections:              PBEc PBEx                               == Not Default ==

 SPIN  (restricted / unrestr.)
    Molecule:                          Restricted                               

 OTHER ASPECTS
    Relativistic Corrections:          scalar (ZORA,MAPA)                      == Not Default ==

    Nuclear Charge Density Model:      Point Charge Nuclei                      
    Core Treatment:                    Frozen Orbital(s)                        

    Hyperfine or Zeeman Interaction:   ---                                      



 =====================================
 S Y M M E T R Y ,   E L E C T R O N S
 =====================================
  
 Symmetry: ATOM

 Irreducible Representations, including subspecies
 -------------------------------------------------
 S
 P:x  P:y  P:z
 D:z2  D:x2-y2  D:xy  D:xz  D:yz
 F:z3  F:z  F:xyz  F:z2x  F:z2y  F:x  F:y


 Configuration of Valence Electrons
 ==================================

          Occupation Numbers
          -------------------------------------------------
 S        1
 P        0
 D        0
 F        0
          -------------------------------------------------

 Total:   1

 Net Charge: 0 (Nuclei minus Electrons)

 Preset values for MO occupations will be applied through SCF cycle no. 1000000
 Thereafter, the program will assign electrons to MOs that are spatially
 similar to the occupied MOs in a "reference" cycle ("KeepOrbitals").
 The reference cycle is always the PREVIOUS cycle: it will evolve with
 the SCF procedure.



 ================================
 (Slater-type)  F U N C T I O N S  ***  (Basis and Fit)  ***
 ================================
  

 Atom Type    1  (H)
 ==============

 Valence Basis Sets:   3
 -----------------------
   1 S    0.760000
   1 S    1.280000
   2 P    1.250000


 BAS: List of all Elementary Cartesian Basis Functions
 =====================================================

 The numbering in the list below (to the right of the function characteristics) is referred
 to in print-outs of MO eigenvectors and Mulliken populations in the BAS representation
 (as contrasted to the SFO representation).

 Notes:
 1. The functions are characterized by a polynomial prefactor (powers of x,y,z and r) and
    an exponential decay factor alpha.
 2. Since the basis sets are specific for an atom TYPE, the individual functions occur on
    all atoms of that type.
 3. The word 'Core' in the left margin signals that it is a Core Function (CF) : not a
    degree of freedom in the valence set, but only used to ensure orthogonalization of
    the other valence basis functions on the frozen Core Orbitals.


 (power of) X  Y  Z  R     Alpha  on Atom
            ==========     =====     ==========

 H                                    1
                                  ---------------------------------------------------------------------------
            0  0  0  0     0.760      1
            0  0  0  0     1.280      2
            1  0  0  0     1.250      3
            0  1  0  0     1.250      4
            0  0  1  0     1.250      5

 Total number of charge fitting functions (nprimf)        50
 Total number of Cartesian basis functions (naos)          5
 Total number of Cartesian core functions  (ncos)          0



 BAS: List of all Elementary Cartesian Basis Functions
 =====================================================

 The numbering in the list below (to the right of the function characteristics) is referred
 to in print-outs of MO eigenvectors and Mulliken populations in the BAS representation
 (as contrasted to the SFO representation).

 Notes:
 1. The functions are characterized by a polynomial prefactor (powers of x,y,z and r) and
    an exponential decay factor alpha.
 2. Since the basis sets are specific for an atom TYPE, the individual functions occur on
    all atoms of that type.
 3. The word 'Core' in the left margin signals that it is a Core Function (CF) : not a
    degree of freedom in the valence set, but only used to ensure orthogonalization of
    the other valence basis functions on the frozen Core Orbitals.


 (power of) X  Y  Z  R     Alpha  on Atom
            ==========     =====     ==========

 H                                    1
                                  ---------------------------------------------------------------------------
            0  0  0  0     0.760      1
            0  0  0  0     1.280      2
            1  0  0  0     1.250      3
            0  1  0  0     1.250      4
            0  0  1  0     1.250      5
1
 ***************************************************************************************************



                                              ***********************
                                              *  T E C H N I C A L  *
                                              ***********************
  



 =============================================================
 P A R A L L E L I Z A T I O N  and  V E C T O R I Z A T I O N
 =============================================================
  
 Nr of parallel processes:                                1
 Maximum vector length in NumInt loops:                 128



 =====================
 S C F   U P D A T E S
 =====================
  
 Max. nr. of cycles:                               300
 Convergence criterion:                              0.0000000100
   secondary criterion:                              0.0000000100

 Mix parameter (when DIIS does not apply):           0.2000000000
 Special mix parameter for the first cycle:          1.0000000000
 Mixed ADIIS+SDIIS will be used                  
    Max number of expansion vectors:                10
    Pure ADIIS when Max([F,P]) is above              0.1000000000
    Pure SDIIS when Max([F,P]) is below              0.0010000000
 Automatic ElectronSmearing (in case of problematic SCF convergence) disabled



 =================
 P R E C I S I O N  ***  (General: NumInt, NeglectFunctionTails, ...)  ***
 =================
  

 NumInt:           Target precision:                12.0000000000
 -------           Initial precision:               10.0000000000
                   Min. precision (optimization):   10.0000000000

 Neglect Functions:          Basis functions:        0.1000000000E-13
 ------------------          Fit functions:          0.1000000000E-13



 ===========================
 L I N E A R   S C A L I N G
 ===========================
  

 Cut-off radii density fit:                        0.1000000000E-97
 Overlap cut-off criterion AO matrix elements:     0.1000000000E-97
 Cut-offs for Coulomb potential and fitted density:0.1000000000E-97
 Cut-off criterion for Coulomb multipole terms:    0.1000000000E-97
 Progressive Convergence parameter:                 0.000000000    
1
 ***************************************************************************************************



                                            ***************************
                                            *  C O M P U T A T I O N  *
                                            ***************************
  

 Number of elements of the density matrix on this node (used, total):        15        15



 ===========================================
 Numerical Integration : Fuzzy Cells (Becke)
 ===========================================
  
 Becke grid quality: VERYGOOD       
  
 Lebedev angular grid order:             min:  13 max:  41
 Nr. of radial points:                   min:  64 max:  64

 Total nr. of points:         64
 Nr. of blocks:                1
 Block length:                64
 Nr. of dummy points:          0


 Test of Precision of the Numerical Integration Grid
 ===================================================

 Integral of the Total Core Density:                   0.00000000000000



 ========================
 Density Fitting (zlmFit)
 ========================
  
 ZlmFit Fit Quality: VERYGOOD       
  
 Max L-expansion:                        min:   0 max:   0
 Nr. of radial interpolation points:     min: 120 max: 120



 =====
 S C F  ***  ScaSCF  ***
 =====
  

 CYCLE    1
 SCF Error: norm([F,P])=      0.000000000000, max([F,P])=      0.000000000000
 orbitals (Q,E):
 ---------------
 S :1...2            ( 1.00    -0.4983)  ( 0.00     0.1718)
 P :1...1            ( 0.00     0.1562)

 CYCLE    2
 SCF Error: norm([F,P])=      0.033001933656, max([F,P])=      0.033001933656
 orbitals (Q,E):
 ---------------
 S :1...2            ( 1.00    -0.2268)  ( 0.00     0.4005)
 P :1...1            ( 0.00     0.4153)

 CYCLE    3
  SDIIS (wt  0.000):  0.1528  0.8472
 A-DIIS (wt  1.000):  0.0000  1.0000
  DIIS coefficients:  0.0000  1.0000
 SCF Error: norm([F,P])=      0.005954454000, max([F,P])=      0.005954454000
 orbitals (Q,E):
 ---------------
 S :1...2            ( 1.00    -0.2417)  ( 0.00     0.3884)
 P :1...1            ( 0.00     0.4029)

 CYCLE    4
  SDIIS (wt  1.000):  0.1463  0.8537
 A-DIIS (wt  0.000):  0.0000  1.0000
  DIIS coefficients:  0.1463  0.8537
 SCF Error: norm([F,P])=      0.001020399433, max([F,P])=      0.001020399433
 orbitals (Q,E):
 ---------------
 S :1...2            ( 1.00    -0.2394)  ( 0.00     0.3902)
 P :1...1            ( 0.00     0.4048)

 CYCLE    5
  SDIIS (wt  1.000):  0.0014  0.9986
  DIIS coefficients:  0.0014  0.9986
 SCF Error: norm([F,P])=      0.000001436995, max([F,P])=      0.000001436995
 orbitals (Q,E):
 ---------------
 S :1...2            ( 1.00    -0.2394)  ( 0.00     0.3902)
 P :1...1            ( 0.00     0.4048)

 CYCLE    6
  SDIIS (wt  1.000): -0.0002  1.0002
  DIIS coefficients: -0.0002  1.0002
 SCF Error: norm([F,P])=      0.000000000334, max([F,P])=      0.000000000334
 orbitals (Q,E):
 ---------------
 S :1...2            ( 1.00    -0.2394)  ( 0.00     0.3902)
 P :1...1            ( 0.00     0.4048)

 SCF CONVERGED

 CYCLE    7
1
 ***************************************************************************************************



                                                *******************
                                                *  R E S U L T S  *
                                                *******************
  
 *** Using FIT density in Focky
  SDIIS (wt  1.000):  0.0000  1.0000
  DIIS coefficients:  0.0000  1.0000
 SCF Error: norm([F,P])=      0.000000000000, max([F,P])=      0.000000000000

 Scaled ZORA Orbital Energies, per Irrep and Spin:
 =================================================
                        Occup              E (au)              E (eV)       Diff (eV) with prev. cycle
                        -----      --------------------        ------       --------------------------
 S
               1        1.000     -0.23939248892723E+00        -6.514               7.55E-15
               2        0.000      0.39021645958605E+00        10.618
 P
               1        0.000      0.40480887453077E+00        11.015


 Partially Occupied:
               1 S                -0.23939248892723E+00
  
 LUMO :        2 S                 0.39021645958605E+00
  


 Orbital Energies, all Irreps
 ========================================

 Irrep        no.  (spin)   Occup              E (au)                E (eV)
 ---------------------------------------------------------------------------
 S             1             1.00       -0.23939248892723E+00        -6.5142
 S             2             0.00        0.39021645958605E+00        10.6183
 P             1             0.00        0.40480887453077E+00        11.0154


 All Electron Calculation, thus no Orbital Energies of the Core Orbitals are calculated



 =======================================
 M U L L I K E N   P O P U L A T I O N S
 =======================================
  
 The survey below gives for each atom:
 a) the total charge (Z minus electrons)
 b) the net spin polarization (nr of electrons spin-A minus spin-B)
 c) for each spin the atomic electron valence density (integrated) per L-value.

 Atom              Charge    Spin density          S         P         D         F
 ----              ------    ------------       ------    ------    ------    ------
 1 H               0.0000                       1.0000    0.0000    0.0000    0.0000

 Populations of individual BAS functions
 ----------------------------------------
 1 H            0.6465  0.3535  0.0000  0.0000  0.0000

 Gross Charges per Atom (Z minus electrons)
 ==========================================
             0.0000
 Net Total:  0.00000000



 =======================================================================
 Electrostatic potential at the Nuclei due to electrons and other nuclei
 =======================================================================
  
         Atom                  Potential
         ----                  ---------
     1)   H                   0.94379605
 
 
 ========================
 No memory problems found
 ========================
 
 Maximum number of active allocate calls:         306
 
 *******************************************************************************

                             A D F   E X I T
 NORMAL TERMINATION



 =================
 Timing Statistics
 =================
  
 Total Used :                     CPU=        0.41      System=        0.12     Elapsed=        0.71

 Calls  Section                     ( Mean, Percentage )
 ---------------------------------------------------------------------------------------------------
     3  ><      ................      0.00    0.00             0.00    0.00             0.00    1.96
     1  INIT    ................      0.08   19.23             0.00    0.00             0.12   16.11
     1  GEOMET  ................      0.03    7.69             0.00    0.00             0.05    6.44
     1  INPUTA  ................      0.00    0.00             0.02   12.50             0.00    0.70
     1  MAINSY  ................      0.00    0.00             0.00    0.00             0.04    5.18
     1  SYMFIT  ................      0.00    0.00             0.00    0.00             0.00    0.14
     1  CORORT  ................      0.00    0.00             0.00    0.00             0.01    1.12
     1  SYMORB  ................      0.00    0.00             0.00    0.00             0.00    0.42
     1  CLSMAT  ................      0.00    0.00             0.02   12.50             0.02    2.24
     1  ORTHON  ................      0.02    3.85             0.00    0.00             0.01    1.82
     1  GENPT   ................      0.02    3.85             0.02   12.50             0.03    3.92
     1  PTBAS   ................      0.00    0.00             0.02   12.50             0.02    2.52
     7  FOCKY   ................      0.03   57.69             0.01   50.00             0.04   35.57
     7  FOCKTR  ................      0.00    0.00             0.00    0.00             0.00    1.26
     7  SDIIS   ................      0.00    0.00             0.00    0.00             0.01   11.06
     1  COREPS  ................      0.02    3.85             0.00    0.00             0.02    2.94
     1  POPAN   ................      0.00    0.00             0.00    0.00             0.01    1.54
     1  DEBYE   ................      0.00    0.00             0.00    0.00             0.01    0.98
     1  EXIT PROCEDURE .........      0.02    3.85             0.00    0.00             0.03    4.06


 Currently Open Files (EXIT00)
 ====================

 Unit    Access Format  Status   Type       Ident (file)
 -------------------------------------------------------
   3      SEQ    FORM   TRANSP  NORMAL      LOGFILE
                                          ( logfile )

 ***************************************************************************************************
 (LOGFILE)
 <Apr01-2020> <23:32:36>  DIRAC 2019.303  RunTime: Apr01-2020 23:32:36  Nodes: 1  Procs: 1
 <Apr01-2020> <23:32:36>  NORMAL TERMINATION
 <Apr01-2020> <23:32:36>  END
 <Apr01-2020> <23:32:37>  ADF 2019.303  RunTime: Apr01-2020 23:32:37  Nodes: 1  Procs: 1
 <Apr01-2020> <23:32:37>  Hydrogen (DZP)
 <Apr01-2020> <23:32:37>  RunType   : CREATE
 <Apr01-2020> <23:32:37>  Net Charge: 0 (Nuclei minus Electrons)
 <Apr01-2020> <23:32:37>  Symmetry  : ATOM
  Coordinates
    Atom         X           Y           Z   (Angstrom)
    1.H         0.000000    0.000000    0.000000
 <Apr01-2020> <23:32:37>  >>>> CORORT
 <Apr01-2020> <23:32:37>  >>>> CLSMAT
 <Apr01-2020> <23:32:37>  >>>> ORTHON
 <Apr01-2020> <23:32:37>  >>>> GENPT
 <Apr01-2020> <23:32:37>  Block Length=  64
 <Apr01-2020> <23:32:37>  >>>> PTBAS
 <Apr01-2020> <23:32:37>  >>>> CYCLE
 <Apr01-2020> <23:32:37>              |Error|         MaxErr       Wt(A-DIIS)
 <Apr01-2020> <23:32:37>      1      0.00000000      0.00000000
 <Apr01-2020> <23:32:37>      2      0.03300193      0.03300193
 <Apr01-2020> <23:32:37>      3      0.00595445      0.00595445    100.0
 <Apr01-2020> <23:32:37>      4      0.00102040      0.00102040      0.0
 <Apr01-2020> <23:32:37>      5      0.00000144      0.00000144      0.0
 <Apr01-2020> <23:32:37>      6      0.00000000      0.00000000      0.0
 <Apr01-2020> <23:32:37>  SCF converged
 <Apr01-2020> <23:32:37>      7      0.00000000      0.00000000      0.0
 <Apr01-2020> <23:32:37>  >>>> POPAN
 <Apr01-2020> <23:32:37>  >>>> DEBYE
 <Apr01-2020> <23:32:37>  NORMAL TERMINATION
 <Apr01-2020> <23:32:37>  END

 *******************************************************************************
 *                                                                             *
 *  --------------------------------                                           *
 *   Amsterdam Modeling Suite (AMS)              2019.303                      *
 *  --------------------------------                                           *
 *                                               r81909 2020-02-21             *
 *                                                                             *
 *                                                                             *
 *                            =====================                            *
 *                            |                   |                            *
 *                            |     D I R A C     |                            *
 *                            |                   |                            *
 *                            =====================                            *
 *                                                                             *
 *                                                                             *
 *   Online information and documentation:  https://www.scm.com/support/       *
 *   E-mail:  support@scm.com   info@scm.com                                   *
 *                                                                             *
 *   Scientific publications using AMS results must be properly referenced     *
 *   See the User Manuals (or the web site) for recommended citations          *
 *   The terms and conditions of the End User License Agreement apply to       *
 *   the use of AMS, https://www.scm.com/license-terms/                        *
 *                                                                             *
 *********************  x86_64_windows_intel / intelmpi  ***********************
 
 Licensed to: Student project account / Theoretische chemie, Vrije Universiteit / Amsterdam / NETHERLANDS
 SCM User ID: u20153
  
 DIRAC 2019.303  RunTime: Apr01-2020 23:32:37  Nodes: 1  Procs: 1

 Temporary files are created in D:\SCMTMP\/kid_0.785157023
1
 NITROGEN ATOM all electron RELATIVISTIC, Point Nuc, A and c 
 N J RN H ZN XION ANUC CLIGHT
 5000    4100.00000000197.36710137  7.00000000  0.00000000   14.003074  0.1370360E+03
  PH   PHI     EPS        DEL        DELRVR
  0.30  0.30     2500.00  0.00001000  0.00001000
 IDIRC  NC1  NDEBU NPRIN  IPUN IRCOR IWCOR
   1   300     0     0     0     0     0
   XALPHA      XLATTER      RNUC
  0.70000000  0.00000000  0.00000000 Point Charge
   XN   XL   XJ      XE          XZ      XDELL
  1.0  0.0  0.5      -5.000       2.000     0.00000
  2.0  0.0  0.5      -1.000       2.000     0.00000
  2.0  1.0  0.5      -1.000       2.000     0.00000
  2.0  1.0  1.5      -1.000       1.000     0.00000
 ICORP=  0  NPCL=  0  DEMP=0.00  PEPS=0.000000
 R(1)=  0.1000000E-08 D=  0.1005080E+01 RNUC=  0.0000000E+00
 converged at cycle   25  DENSITY AVERAGING    0.3000
  MAXIMUM ERROR IN R.V(R) IS   0.97905511E-05
 Q,EY,EV,EZ,ESUM,ETOT,RHO  0.700000E+01 -0.796419E+01 -0.840156E+02 -0.127663E+03 -0.300692E+02 -0.538837E+02  0.270066E-14


 DIRAC CALCULATION
1                    NITROGEN ATOM all electron RELATIVISTIC, Point Nuc, A and c from libtc


 EXCHANGE COEFFICIENT=  0.7000000           TAIL CORRECTION=  0.           NUCLEAR RADIUS=  0.000E+00
0                       ORBITAL    N    L    J     ELECTRONS     EIGENVALUE                DELTA OF EIGENV.

                          1S1/2  1.0  0.0  0.5     2.000       -0.1403720E+02                 0.4993583E-04
                          2S1/2  2.0  0.0  0.5     2.000       -0.6456810E+00                 0.6544571E-05
                          2P1/2  2.0  1.0  0.5     2.000       -0.2347008E+00                 0.5687228E-05
                          2P3/2  2.0  1.0  1.5     1.000       -0.2339893E+00                 0.5679256E-05


                                        NUCLEAR CHARGE=    7.000000
                            INTEGRAL OF CHARGE DENSITY=    7.000000
                           SUM OF THE ORBITAL ENERGIES=    -30.0692
                                          TOTAL ENERGY=    -53.8837
                                        KINETIC ENERGY=     53.9465
                             NUCLEAR ATTRACTION ENERGY=   -127.6627
                             ELECTRON REPULSION ENERGY=     25.8056
                                       EXCHANGE ENERGY=     -5.9731

 *******************************************************************************

                             D I R A C   E X I T
 NORMAL TERMINATION



 =================
 Timing Statistics
 =================
  
 Total Used :                     CPU=        0.09      System=        0.05     Elapsed=        0.15

 Calls  Section                     ( Mean, Percentage )
 ---------------------------------------------------------------------------------------------------
     2  ><      ................      0.00    0.00             0.00    0.00             0.00    0.00
     1  EXIT PROCEDURE .........      0.09  100.00             0.05  100.00             0.15  100.00


 Currently Open Files (EXIT00)
 ====================

 Unit    Access Format  Status   Type       Ident (file)
 -------------------------------------------------------
   3      SEQ    FORM   TRANSP  NORMAL      LOGFILE
                                          ( logfile )
 
Create N   file=DZP-N
XC
  GGA PBE
End
relativistic ZORA
Corepotentials t12.rel
End

 *******************************************************************************
 *                                                                             *
 *  --------------------------------                                           *
 *   Amsterdam Modeling Suite (AMS)              2019.303                      *
 *  --------------------------------                                           *
 *                                               r81909 2020-02-21             *
 *                                                                             *
 *                                                                             *
 *                              =================                              *
 *                              |               |                              *
 *                              |     A D F     |                              *
 *                              |               |                              *
 *                              =================                              *
 *                                                                             *
 *                                                                             *
 *   Online information and documentation:  https://www.scm.com/support/       *
 *   E-mail:  support@scm.com   info@scm.com                                   *
 *                                                                             *
 *   Scientific publications using AMS results must be properly referenced     *
 *   See the User Manuals (or the web site) for recommended citations          *
 *   The terms and conditions of the End User License Agreement apply to       *
 *   the use of AMS, https://www.scm.com/license-terms/                        *
 *                                                                             *
 *********************  x86_64_windows_intel / intelmpi  ***********************
 
 Licensed to: Student project account / Theoretische chemie, Vrije Universiteit / Amsterdam / NETHERLANDS
 SCM User ID: u20153
  
 ADF 2019.303  RunTime: Apr01-2020 23:32:38  Nodes: 1  Procs: 1

 Temporary files are created in D:\SCMTMP\/kid_0.1187023705
 Nitrogen (DZP)



 ===========================
 A T T A C H E D   F I L E S
 ===========================
  
 CREATE - Data File:    DZP-N
                        Nitrogen (DZP)
 Core Potentials:
         file : t12.rel



 ===============================
 M O D E L   P A R A M E T E R S
 ===============================
  
 DENSITY FUNCTIONAL POTENTIAL (scf)
    LDA:                               PW92                                    == Not Default ==
    Gradient Corrections:              PBEc PBEx                               == Not Default ==

 SPIN  (restricted / unrestr.)
    Molecule:                          Restricted                               

 OTHER ASPECTS
    Relativistic Corrections:          scalar (ZORA,MAPA)                      == Not Default ==

    Nuclear Charge Density Model:      Point Charge Nuclei                      
    Core Treatment:                    Frozen Orbital(s)                        

    Hyperfine or Zeeman Interaction:   ---                                      



 =====================================
 S Y M M E T R Y ,   E L E C T R O N S
 =====================================
  
 Symmetry: ATOM

 Irreducible Representations, including subspecies
 -------------------------------------------------
 S
 P:x  P:y  P:z
 D:z2  D:x2-y2  D:xy  D:xz  D:yz
 F:z3  F:z  F:xyz  F:z2x  F:z2y  F:x  F:y


 Configuration of Valence Electrons
 ==================================

          Occupation Numbers
          -------------------------------------------------
 S        2*2
 P        3
 D        0
 F        0
          -------------------------------------------------

 Total:   7

 Net Charge: 0 (Nuclei minus Electrons)

 Preset values for MO occupations will be applied through SCF cycle no. 1000000
 Thereafter, the program will assign electrons to MOs that are spatially
 similar to the occupied MOs in a "reference" cycle ("KeepOrbitals").
 The reference cycle is always the PREVIOUS cycle: it will evolve with
 the SCF procedure.



 ================================
 (Slater-type)  F U N C T I O N S  ***  (Basis and Fit)  ***
 ================================
  

 Atom Type    1  (N)
 ==============

 Valence Basis Sets:   7
 -----------------------
   1 S    8.740000
   1 S    5.900000
   2 S    1.460000
   2 S    2.380000
   2 P    2.580000
   2 P    1.120000
   3 D    2.200000


 BAS: List of all Elementary Cartesian Basis Functions
 =====================================================

 The numbering in the list below (to the right of the function characteristics) is referred
 to in print-outs of MO eigenvectors and Mulliken populations in the BAS representation
 (as contrasted to the SFO representation).

 Notes:
 1. The functions are characterized by a polynomial prefactor (powers of x,y,z and r) and
    an exponential decay factor alpha.
 2. Since the basis sets are specific for an atom TYPE, the individual functions occur on
    all atoms of that type.
 3. The word 'Core' in the left margin signals that it is a Core Function (CF) : not a
    degree of freedom in the valence set, but only used to ensure orthogonalization of
    the other valence basis functions on the frozen Core Orbitals.


 (power of) X  Y  Z  R     Alpha  on Atom
            ==========     =====     ==========

 N                                    1
                                  ---------------------------------------------------------------------------
            0  0  0  0     8.740      1
            0  0  0  0     5.900      2
            0  0  0  1     1.460      3
            0  0  0  1     2.380      4
            1  0  0  0     2.580      5
            0  1  0  0     2.580      6
            0  0  1  0     2.580      7
            1  0  0  0     1.120      8
            0  1  0  0     1.120      9
            0  0  1  0     1.120     10
            2  0  0  0     2.200     11
            1  1  0  0     2.200     12
            1  0  1  0     2.200     13
            0  2  0  0     2.200     14
            0  1  1  0     2.200     15
            0  0  2  0     2.200     16

 Total number of charge fitting functions (nprimf)        84
 Total number of Cartesian basis functions (naos)         16
 Total number of Cartesian core functions  (ncos)          0



 BAS: List of all Elementary Cartesian Basis Functions
 =====================================================

 The numbering in the list below (to the right of the function characteristics) is referred
 to in print-outs of MO eigenvectors and Mulliken populations in the BAS representation
 (as contrasted to the SFO representation).

 Notes:
 1. The functions are characterized by a polynomial prefactor (powers of x,y,z and r) and
    an exponential decay factor alpha.
 2. Since the basis sets are specific for an atom TYPE, the individual functions occur on
    all atoms of that type.
 3. The word 'Core' in the left margin signals that it is a Core Function (CF) : not a
    degree of freedom in the valence set, but only used to ensure orthogonalization of
    the other valence basis functions on the frozen Core Orbitals.


 (power of) X  Y  Z  R     Alpha  on Atom
            ==========     =====     ==========

 N                                    1
                                  ---------------------------------------------------------------------------
            0  0  0  0     8.740      1
            0  0  0  0     5.900      2
            0  0  0  1     1.460      3
            0  0  0  1     2.380      4
            1  0  0  0     2.580      5
            0  1  0  0     2.580      6
            0  0  1  0     2.580      7
            1  0  0  0     1.120      8
            0  1  0  0     1.120      9
            0  0  1  0     1.120     10
            2  0  0  0     2.200     11
            1  1  0  0     2.200     12
            1  0  1  0     2.200     13
            0  2  0  0     2.200     14
            0  1  1  0     2.200     15
            0  0  2  0     2.200     16
1
 ***************************************************************************************************



                                              ***********************
                                              *  T E C H N I C A L  *
                                              ***********************
  



 =============================================================
 P A R A L L E L I Z A T I O N  and  V E C T O R I Z A T I O N
 =============================================================
  
 Nr of parallel processes:                                1
 Maximum vector length in NumInt loops:                 128



 =====================
 S C F   U P D A T E S
 =====================
  
 Max. nr. of cycles:                               300
 Convergence criterion:                              0.0000000100
   secondary criterion:                              0.0000000100

 Mix parameter (when DIIS does not apply):           0.2000000000
 Special mix parameter for the first cycle:          1.0000000000
 Mixed ADIIS+SDIIS will be used                  
    Max number of expansion vectors:                10
    Pure ADIIS when Max([F,P]) is above              0.1000000000
    Pure SDIIS when Max([F,P]) is below              0.0010000000
 Automatic ElectronSmearing (in case of problematic SCF convergence) disabled



 =================
 P R E C I S I O N  ***  (General: NumInt, NeglectFunctionTails, ...)  ***
 =================
  

 NumInt:           Target precision:                12.0000000000
 -------           Initial precision:               10.0000000000
                   Min. precision (optimization):   10.0000000000

 Neglect Functions:          Basis functions:        0.1000000000E-13
 ------------------          Fit functions:          0.1000000000E-13



 ===========================
 L I N E A R   S C A L I N G
 ===========================
  

 Cut-off radii density fit:                        0.1000000000E-97
 Overlap cut-off criterion AO matrix elements:     0.1000000000E-97
 Cut-offs for Coulomb potential and fitted density:0.1000000000E-97
 Cut-off criterion for Coulomb multipole terms:    0.1000000000E-97
 Progressive Convergence parameter:                 0.000000000    
1
 ***************************************************************************************************



                                            ***************************
                                            *  C O M P U T A T I O N  *
                                            ***************************
  

 Number of elements of the density matrix on this node (used, total):       136       136



 ===========================================
 Numerical Integration : Fuzzy Cells (Becke)
 ===========================================
  
 Becke grid quality: VERYGOOD       
  
 Lebedev angular grid order:             min:  13 max:  41
 Nr. of radial points:                   min:  72 max:  72

 Total nr. of points:         72
 Nr. of blocks:                1
 Block length:                72
 Nr. of dummy points:          0


 Test of Precision of the Numerical Integration Grid
 ===================================================

 Integral of the Total Core Density:                   0.00000000000000



 ========================
 Density Fitting (zlmFit)
 ========================
  
 ZlmFit Fit Quality: VERYGOOD       
  
 Max L-expansion:                        min:   0 max:   0
 Nr. of radial interpolation points:     min: 160 max: 160



 =====
 S C F  ***  ScaSCF  ***
 =====
  

 CYCLE    1
 SCF Error: norm([F,P])=      0.000000000000, max([F,P])=      0.000000000000
 orbitals (Q,E):
 ---------------
 S :1...4            ( 2.00   -24.4960)  ( 2.00    -5.9918)  ( 0.00    -2.6086)  ( 0.00    19.6812)
 P :1...2            ( 3.00    -5.8044)  ( 0.00    -2.3898)
 D :1...1            ( 0.00    -2.7133)

 CYCLE    2
 SCF Error: norm([F,P])=      4.718076799890, max([F,P])=      3.575461190169
 orbitals (Q,E):
 ---------------
 S :1...3            ( 2.00   -12.0835)  ( 2.00    -0.1315)  ( 0.00     1.1656)
 P :1...2            ( 3.00     0.1954)  ( 0.00     1.3141)
 D :1...1            ( 0.00     1.7013)

 CYCLE    3
  SDIIS (wt  0.000):  0.2292  0.7708
 A-DIIS (wt  1.000):  0.2257  0.7743
  DIIS coefficients:  0.2257  0.7743
 SCF Error: norm([F,P])=      1.732126731486, max([F,P])=      1.376801059230
 orbitals (Q,E):
 ---------------
 S :1...3            ( 2.00   -14.7868)  ( 2.00    -0.9735)  ( 0.00     0.4203)
 P :1...2            ( 3.00    -0.5443)  ( 0.00     0.3959)
 D :1...1            ( 0.00     1.0221)

 CYCLE    4
  SDIIS (wt  0.000):  0.2625  0.7375
 A-DIIS (wt  1.000):  0.0374  0.9626
  DIIS coefficients:  0.0374  0.9626
 SCF Error: norm([F,P])=      0.635583350188, max([F,P])=      0.428482394394
 orbitals (Q,E):
 ---------------
 S :1...3            ( 2.00   -13.6651)  ( 2.00    -0.5145)  ( 0.00     0.7295)
 P :1...2            ( 3.00    -0.1047)  ( 0.00     0.7532)
 D :1...1            ( 0.00     1.3724)

 CYCLE    5
  SDIIS (wt  0.000): -0.0579  0.4000  0.6579
 A-DIIS (wt  1.000):  0.0000  0.3866  0.6134
  DIIS coefficients:  0.0000  0.3866  0.6134
 SCF Error: norm([F,P])=      0.532217646411, max([F,P])=      0.376684152835
 orbitals (Q,E):
 ---------------
 S :1...3            ( 2.00   -14.2179)  ( 2.00    -0.7154)  ( 0.00     0.5778)
 P :1...2            ( 3.00    -0.2872)  ( 0.00     0.5683)
 D :1...1            ( 0.00     1.2175)

 CYCLE    6
  SDIIS (wt  0.547): -0.0010 -0.0404  0.0767  0.9647
 A-DIIS (wt  0.453):  0.0000  0.0000  0.0000  1.0000
  DIIS coefficients: -0.0005 -0.0221  0.0420  0.9807
 SCF Error: norm([F,P])=      0.067155020791, max([F,P])=      0.045835320661
 orbitals (Q,E):
 ---------------
 S :1...3            ( 2.00   -14.1282)  ( 2.00    -0.6789)  ( 0.00     0.6033)
 P :1...2            ( 3.00    -0.2527)  ( 0.00     0.5977)
 D :1...1            ( 0.00     1.2457)

 CYCLE    7
  SDIIS (wt  0.811): -0.0010  0.0016  0.0049  0.2945  0.7001
 A-DIIS (wt  0.189):  0.0000  0.0000  0.0000  0.0740  0.9260
  DIIS coefficients: -0.0008  0.0013  0.0040  0.2528  0.7428
 SCF Error: norm([F,P])=      0.028462911560, max([F,P])=      0.019716358206
 orbitals (Q,E):
 ---------------
 S :1...3            ( 2.00   -14.1578)  ( 2.00    -0.6901)  ( 0.00     0.5954)
 P :1...2            ( 3.00    -0.2631)  ( 0.00     0.5884)
 D :1...1            ( 0.00     1.2374)

 CYCLE    8
  SDIIS (wt  0.985):  0.0002 -0.0003 -0.0014 -0.0594  1.0609
 A-DIIS (wt  0.015):  0.0000  0.0000  0.0000  0.0000  1.0000
  DIIS coefficients:  0.0002 -0.0003 -0.0014 -0.0586  1.0600
 SCF Error: norm([F,P])=      0.003576585702, max([F,P])=      0.002474836717
 orbitals (Q,E):
 ---------------
 S :1...3            ( 2.00   -14.1545)  ( 2.00    -0.6888)  ( 0.00     0.5963)
 P :1...2            ( 3.00    -0.2619)  ( 0.00     0.5894)
 D :1...1            ( 0.00     1.2383)

 CYCLE    9
  SDIIS (wt  1.000):  0.0000  0.0000 -0.0001  0.0000  0.0211  0.1560  0.8230
  DIIS coefficients:  0.0000  0.0000 -0.0001  0.0000  0.0211  0.1560  0.8230
 SCF Error: norm([F,P])=      0.000011723798, max([F,P])=      0.000007985879
 orbitals (Q,E):
 ---------------
 S :1...3            ( 2.00   -14.1545)  ( 2.00    -0.6888)  ( 0.00     0.5963)
 P :1...2            ( 3.00    -0.2619)  ( 0.00     0.5894)
 D :1...1            ( 0.00     1.2383)

 CYCLE   10
  SDIIS (wt  1.000):  0.0000 -0.0003 -0.0027 -0.0042  1.0072
  DIIS coefficients:  0.0000 -0.0003 -0.0027 -0.0042  1.0072
 SCF Error: norm([F,P])=      0.000000055897, max([F,P])=      0.000000040360
 orbitals (Q,E):
 ---------------
 S :1...3            ( 2.00   -14.1545)  ( 2.00    -0.6888)  ( 0.00     0.5963)
 P :1...2            ( 3.00    -0.2619)  ( 0.00     0.5894)
 D :1...1            ( 0.00     1.2383)

 CYCLE   11
  SDIIS (wt  1.000):  0.0000 -0.0192  1.0192
  DIIS coefficients:  0.0000 -0.0192  1.0192
 SCF Error: norm([F,P])=      0.000000001301, max([F,P])=      0.000000000848
 orbitals (Q,E):
 ---------------
 S :1...3            ( 2.00   -14.1545)  ( 2.00    -0.6888)  ( 0.00     0.5963)
 P :1...2            ( 3.00    -0.2619)  ( 0.00     0.5894)
 D :1...1            ( 0.00     1.2383)

 SCF CONVERGED

 CYCLE   12
1
 ***************************************************************************************************



                                                *******************
                                                *  R E S U L T S  *
                                                *******************
  
 *** Using FIT density in Focky
  SDIIS (wt  1.000):  0.0000 -0.0001  0.0051  0.9950
  DIIS coefficients:  0.0000 -0.0001  0.0051  0.9950
 SCF Error: norm([F,P])=      0.000000000002, max([F,P])=      0.000000000002

 Scaled ZORA Orbital Energies, per Irrep and Spin:
 =================================================
                        Occup              E (au)              E (eV)       Diff (eV) with prev. cycle
                        -----      --------------------        ------       --------------------------
 S
               1        2.000     -0.14154489824002E+02      -385.163              -5.51E-11
               2        2.000     -0.68880630668577E+00       -18.743              -2.13E-11
               3        0.000      0.59627237039470E+00        16.225
               4        0.000      0.28719733415597E+02       781.504
 P
               1        3.000     -0.26193884583507E+00        -7.128              -1.98E-11
               2        0.000      0.58941699261679E+00        16.039
 D
               1        0.000      0.12383353460103E+01        33.697


 Partially Occupied:
               1 P                -0.26193884583507E+00
  
 HOMO :        2 S                -0.68880630668577E+00
 LUMO :        2 P                 0.58941699261679E+00
  


 Orbital Energies, all Irreps
 ========================================

 Irrep        no.  (spin)   Occup              E (au)                E (eV)
 ---------------------------------------------------------------------------
 S             1             2.00       -0.14154489824002E+02      -385.1633
 S             2             2.00       -0.68880630668577E+00       -18.7434
 P             1             3.00       -0.26193884583507E+00        -7.1277
 P             2             0.00        0.58941699261679E+00        16.0389
 S             3             0.00        0.59627237039470E+00        16.2254
 D             1             0.00        0.12383353460103E+01        33.6968
 S             4             0.00        0.28719733415597E+02       781.5037


 All Electron Calculation, thus no Orbital Energies of the Core Orbitals are calculated



 =======================================
 M U L L I K E N   P O P U L A T I O N S
 =======================================
  
 The survey below gives for each atom:
 a) the total charge (Z minus electrons)
 b) the net spin polarization (nr of electrons spin-A minus spin-B)
 c) for each spin the atomic electron valence density (integrated) per L-value.

 Atom              Charge    Spin density          S         P         D         F
 ----              ------    ------------       ------    ------    ------    ------
 1 N               0.0000                       4.0000    3.0000    0.0000    0.0000

 Populations of individual BAS functions
 ----------------------------------------
 1 N            0.5240  1.4552  0.7815  1.2392  0.5021  0.5021  0.5021  0.4979  0.4979  0.4979
                0.0000  0.0000  0.0000  0.0000  0.0000  0.0000

 Gross Charges per Atom (Z minus electrons)
 ==========================================
             0.0000
 Net Total:  0.00000000



 =======================================================================
 Electrostatic potential at the Nuclei due to electrons and other nuclei
 =======================================================================
  
         Atom                  Potential
         ----                  ---------
     1)   N                  18.28339303
 
 
 ========================
 No memory problems found
 ========================
 
 Maximum number of active allocate calls:         376
 
 *******************************************************************************

                             A D F   E X I T
 NORMAL TERMINATION



 =================
 Timing Statistics
 =================
  
 Total Used :                     CPU=        0.67      System=        0.06     Elapsed=        0.92

 Calls  Section                     ( Mean, Percentage )
 ---------------------------------------------------------------------------------------------------
     3  ><      ................      0.00    0.00             0.00    0.00             0.00    1.52
     1  INIT    ................      0.11   16.28             0.00    0.00             0.11   12.27
     1  GEOMET  ................      0.02    2.33             0.03   50.00             0.05    4.99
     1  INPUTA  ................      0.00    0.00             0.02   25.00             0.01    0.87
     1  MAINSY  ................      0.02    2.33             0.00    0.00             0.03    3.69
     1  SYMFIT  ................      0.00    0.00             0.00    0.00             0.00    0.11
     1  CORORT  ................      0.00    0.00             0.00    0.00             0.01    0.76
     1  SYMORB  ................      0.00    0.00             0.00    0.00             0.00    0.22
     1  CLSMAT  ................      0.02    2.33             0.00    0.00             0.01    1.41
     1  ORTHON  ................      0.02    2.33             0.00    0.00             0.01    1.52
     1  GENPT   ................      0.00    0.00             0.00    0.00             0.03    3.26
     1  PTBAS   ................      0.02    2.33             0.00    0.00             0.01    1.41
    12  FOCKY   ................      0.03   55.81             0.00   25.00             0.04   45.71
    12  FOCKTR  ................      0.00    2.33             0.00    0.00             0.00    1.41
    12  SDIIS   ................      0.00    6.98             0.00    0.00             0.01   12.81
     1  COREPS  ................      0.03    4.65             0.00    0.00             0.03    2.82
     1  POPAN   ................      0.00    0.00             0.00    0.00             0.02    1.74
     1  DEBYE   ................      0.00    0.00             0.00    0.00             0.01    0.76
     1  EXIT PROCEDURE .........      0.02    2.33             0.00    0.00             0.02    2.71


 Currently Open Files (EXIT00)
 ====================

 Unit    Access Format  Status   Type       Ident (file)
 -------------------------------------------------------
   3      SEQ    FORM   TRANSP  NORMAL      LOGFILE
                                          ( logfile )

 ***************************************************************************************************
 (LOGFILE)
 <Apr01-2020> <23:32:36>  DIRAC 2019.303  RunTime: Apr01-2020 23:32:36  Nodes: 1  Procs: 1
 <Apr01-2020> <23:32:36>  NORMAL TERMINATION
 <Apr01-2020> <23:32:36>  END
 <Apr01-2020> <23:32:37>  ADF 2019.303  RunTime: Apr01-2020 23:32:37  Nodes: 1  Procs: 1
 <Apr01-2020> <23:32:37>  Hydrogen (DZP)
 <Apr01-2020> <23:32:37>  RunType   : CREATE
 <Apr01-2020> <23:32:37>  Net Charge: 0 (Nuclei minus Electrons)
 <Apr01-2020> <23:32:37>  Symmetry  : ATOM
  Coordinates
    Atom         X           Y           Z   (Angstrom)
    1.H         0.000000    0.000000    0.000000
 <Apr01-2020> <23:32:37>  >>>> CORORT
 <Apr01-2020> <23:32:37>  >>>> CLSMAT
 <Apr01-2020> <23:32:37>  >>>> ORTHON
 <Apr01-2020> <23:32:37>  >>>> GENPT
 <Apr01-2020> <23:32:37>  Block Length=  64
 <Apr01-2020> <23:32:37>  >>>> PTBAS
 <Apr01-2020> <23:32:37>  >>>> CYCLE
 <Apr01-2020> <23:32:37>              |Error|         MaxErr       Wt(A-DIIS)
 <Apr01-2020> <23:32:37>      1      0.00000000      0.00000000
 <Apr01-2020> <23:32:37>      2      0.03300193      0.03300193
 <Apr01-2020> <23:32:37>      3      0.00595445      0.00595445    100.0
 <Apr01-2020> <23:32:37>      4      0.00102040      0.00102040      0.0
 <Apr01-2020> <23:32:37>      5      0.00000144      0.00000144      0.0
 <Apr01-2020> <23:32:37>      6      0.00000000      0.00000000      0.0
 <Apr01-2020> <23:32:37>  SCF converged
 <Apr01-2020> <23:32:37>      7      0.00000000      0.00000000      0.0
 <Apr01-2020> <23:32:37>  >>>> POPAN
 <Apr01-2020> <23:32:37>  >>>> DEBYE
 <Apr01-2020> <23:32:37>  NORMAL TERMINATION
 <Apr01-2020> <23:32:37>  END
 <Apr01-2020> <23:32:37>  DIRAC 2019.303  RunTime: Apr01-2020 23:32:37  Nodes: 1  Procs: 1
 <Apr01-2020> <23:32:38>  NORMAL TERMINATION
 <Apr01-2020> <23:32:38>  END
 <Apr01-2020> <23:32:38>  ADF 2019.303  RunTime: Apr01-2020 23:32:38  Nodes: 1  Procs: 1
 <Apr01-2020> <23:32:38>  Nitrogen (DZP)
 <Apr01-2020> <23:32:38>  RunType   : CREATE
 <Apr01-2020> <23:32:38>  Net Charge: 0 (Nuclei minus Electrons)
 <Apr01-2020> <23:32:38>  Symmetry  : ATOM
  Coordinates
    Atom         X           Y           Z   (Angstrom)
    1.N         0.000000    0.000000    0.000000
 <Apr01-2020> <23:32:38>  >>>> CORORT
 <Apr01-2020> <23:32:38>  >>>> CLSMAT
 <Apr01-2020> <23:32:38>  >>>> ORTHON
 <Apr01-2020> <23:32:38>  >>>> GENPT
 <Apr01-2020> <23:32:38>  Block Length=  72
 <Apr01-2020> <23:32:38>  >>>> PTBAS
 <Apr01-2020> <23:32:38>  >>>> CYCLE
 <Apr01-2020> <23:32:38>              |Error|         MaxErr       Wt(A-DIIS)
 <Apr01-2020> <23:32:38>      1      0.00000000      0.00000000
 <Apr01-2020> <23:32:38>      2      4.71807680      3.57546119
 <Apr01-2020> <23:32:38>      3      1.73212673      1.37680106    100.0
 <Apr01-2020> <23:32:38>      4      0.63558335      0.42848239    100.0
 <Apr01-2020> <23:32:38>      5      0.53221765      0.37668415    100.0
 <Apr01-2020> <23:32:38>      6      0.06715502      0.04583532     45.3
 <Apr01-2020> <23:32:38>      7      0.02846291      0.01971636     18.9
 <Apr01-2020> <23:32:38>      8      0.00357659      0.00247484      1.5
 <Apr01-2020> <23:32:38>      9      0.00001172      0.00000799      0.0
 <Apr01-2020> <23:32:38>     10      0.00000006      0.00000004      0.0
 <Apr01-2020> <23:32:38>     11      0.00000000      0.00000000      0.0
 <Apr01-2020> <23:32:39>  SCF converged
 <Apr01-2020> <23:32:39>     12      0.00000000      0.00000000      0.0
 <Apr01-2020> <23:32:39>  >>>> POPAN
 <Apr01-2020> <23:32:39>  >>>> DEBYE
 <Apr01-2020> <23:32:39>  NORMAL TERMINATION
 <Apr01-2020> <23:32:39>  END

 *******************************************************************************
 *                                                                             *
 *  --------------------------------                                           *
 *   Amsterdam Modeling Suite (AMS)              2019.303                      *
 *  --------------------------------                                           *
 *                                               r81909 2020-02-21             *
 *                                                                             *
 *                                                                             *
 *                            =====================                            *
 *                            |                   |                            *
 *                            |     D I R A C     |                            *
 *                            |                   |                            *
 *                            =====================                            *
 *                                                                             *
 *                                                                             *
 *   Online information and documentation:  https://www.scm.com/support/       *
 *   E-mail:  support@scm.com   info@scm.com                                   *
 *                                                                             *
 *   Scientific publications using AMS results must be properly referenced     *
 *   See the User Manuals (or the web site) for recommended citations          *
 *   The terms and conditions of the End User License Agreement apply to       *
 *   the use of AMS, https://www.scm.com/license-terms/                        *
 *                                                                             *
 *********************  x86_64_windows_intel / intelmpi  ***********************
 
 Licensed to: Student project account / Theoretische chemie, Vrije Universiteit / Amsterdam / NETHERLANDS
 SCM User ID: u20153
  
 DIRAC 2019.303  RunTime: Apr01-2020 23:32:39  Nodes: 1  Procs: 1

 Temporary files are created in D:\SCMTMP\/kid_0.1512873672
1
 CARBON ATOM all electron RELATIVISTIC, Point Nuc, A and c fr
 N J RN H ZN XION ANUC CLIGHT
 5000    4100.00000000197.36710137  6.00000000  0.00000000   12.000000  0.1370360E+03
  PH   PHI     EPS        DEL        DELRVR
  0.30  0.30     2500.00  0.00001000  0.00001000
 IDIRC  NC1  NDEBU NPRIN  IPUN IRCOR IWCOR
   1   300     0     0     0     0     0
   XALPHA      XLATTER      RNUC
  0.70000000  0.00000000  0.00000000 Point Charge
   XN   XL   XJ      XE          XZ      XDELL
  1.0  0.0  0.5      -5.000       2.000     0.00000
  2.0  0.0  0.5      -1.000       2.000     0.00000
  2.0  1.0  0.5      -1.000       2.000     0.00000
  2.0  1.0  1.5      -1.000       0.000     0.00000
 ICORP=  0  NPCL=  0  DEMP=0.00  PEPS=0.000000
 R(1)=  0.1000000E-08 D=  0.1005080E+01 RNUC=  0.0000000E+00
 converged at cycle   26  DENSITY AVERAGING    0.3000
  MAXIMUM ERROR IN R.V(R) IS   0.55010513E-05
 Q,EY,EV,EZ,ESUM,ETOT,RHO  0.600000E+01 -0.610129E+01 -0.585189E+02 -0.876464E+02 -0.211985E+02 -0.372876E+02  0.164808E-14


 DIRAC CALCULATION
1                    CARBON ATOM all electron RELATIVISTIC, Point Nuc, A and c from libtc


 EXCHANGE COEFFICIENT=  0.7000000           TAIL CORRECTION=  0.           NUCLEAR RADIUS=  0.000E+00
0                       ORBITAL    N    L    J     ELECTRONS     EIGENVALUE                DELTA OF EIGENV.

                          1S1/2  1.0  0.0  0.5     2.000       -0.9959611E+01                 0.1355092E-04
                          2S1/2  2.0  0.0  0.5     2.000       -0.4708542E+00                 0.1106918E-05
                          2P1/2  2.0  1.0  0.5     2.000       -0.1687896E+00                 0.8770186E-06
                          2P3/2  2.0  1.0  1.5     0.000       -0.1684646E+00                 0.8770830E-06


                                        NUCLEAR CHARGE=    6.000000
                            INTEGRAL OF CHARGE DENSITY=    6.000000
                           SUM OF THE ORBITAL ENERGIES=    -21.1985
                                          TOTAL ENERGY=    -37.2876
                                        KINETIC ENERGY=     37.3204
                             NUCLEAR ATTRACTION ENERGY=    -87.6464
                             ELECTRON REPULSION ENERGY=     17.6144
                                       EXCHANGE ENERGY=     -4.5760

 *******************************************************************************

                             D I R A C   E X I T
 NORMAL TERMINATION



 =================
 Timing Statistics
 =================
  
 Total Used :                     CPU=        0.12      System=        0.02     Elapsed=        0.15

 Calls  Section                     ( Mean, Percentage )
 ---------------------------------------------------------------------------------------------------
     2  ><      ................      0.00    0.00             0.00    0.00             0.00    0.00
     1  EXIT PROCEDURE .........      0.12  100.00             0.02  100.00             0.15  100.00


 Currently Open Files (EXIT00)
 ====================

 Unit    Access Format  Status   Type       Ident (file)
 -------------------------------------------------------
   3      SEQ    FORM   TRANSP  NORMAL      LOGFILE
                                          ( logfile )
 
Create C   file=DZP-C
XC
  GGA PBE
End
relativistic ZORA
Corepotentials t12.rel
End

 *******************************************************************************
 *                                                                             *
 *  --------------------------------                                           *
 *   Amsterdam Modeling Suite (AMS)              2019.303                      *
 *  --------------------------------                                           *
 *                                               r81909 2020-02-21             *
 *                                                                             *
 *                                                                             *
 *                              =================                              *
 *                              |               |                              *
 *                              |     A D F     |                              *
 *                              |               |                              *
 *                              =================                              *
 *                                                                             *
 *                                                                             *
 *   Online information and documentation:  https://www.scm.com/support/       *
 *   E-mail:  support@scm.com   info@scm.com                                   *
 *                                                                             *
 *   Scientific publications using AMS results must be properly referenced     *
 *   See the User Manuals (or the web site) for recommended citations          *
 *   The terms and conditions of the End User License Agreement apply to       *
 *   the use of AMS, https://www.scm.com/license-terms/                        *
 *                                                                             *
 *********************  x86_64_windows_intel / intelmpi  ***********************
 
 Licensed to: Student project account / Theoretische chemie, Vrije Universiteit / Amsterdam / NETHERLANDS
 SCM User ID: u20153
  
 ADF 2019.303  RunTime: Apr01-2020 23:32:39  Nodes: 1  Procs: 1

 Temporary files are created in D:\SCMTMP\/kid_0.238300417
 Carbon (DZP)



 ===========================
 A T T A C H E D   F I L E S
 ===========================
  
 CREATE - Data File:    DZP-C
                        Carbon (DZP)
 Core Potentials:
         file : t12.rel



 ===============================
 M O D E L   P A R A M E T E R S
 ===============================
  
 DENSITY FUNCTIONAL POTENTIAL (scf)
    LDA:                               PW92                                    == Not Default ==
    Gradient Corrections:              PBEc PBEx                               == Not Default ==

 SPIN  (restricted / unrestr.)
    Molecule:                          Restricted                               

 OTHER ASPECTS
    Relativistic Corrections:          scalar (ZORA,MAPA)                      == Not Default ==

    Nuclear Charge Density Model:      Point Charge Nuclei                      
    Core Treatment:                    Frozen Orbital(s)                        

    Hyperfine or Zeeman Interaction:   ---                                      



 =====================================
 S Y M M E T R Y ,   E L E C T R O N S
 =====================================
  
 Symmetry: ATOM

 Irreducible Representations, including subspecies
 -------------------------------------------------
 S
 P:x  P:y  P:z
 D:z2  D:x2-y2  D:xy  D:xz  D:yz
 F:z3  F:z  F:xyz  F:z2x  F:z2y  F:x  F:y


 Configuration of Valence Electrons
 ==================================

          Occupation Numbers
          -------------------------------------------------
 S        2*2
 P        2
 D        0
 F        0
          -------------------------------------------------

 Total:   6

 Net Charge: 0 (Nuclei minus Electrons)

 Preset values for MO occupations will be applied through SCF cycle no. 1000000
 Thereafter, the program will assign electrons to MOs that are spatially
 similar to the occupied MOs in a "reference" cycle ("KeepOrbitals").
 The reference cycle is always the PREVIOUS cycle: it will evolve with
 the SCF procedure.



 ================================
 (Slater-type)  F U N C T I O N S  ***  (Basis and Fit)  ***
 ================================
  

 Atom Type    1  (C)
 ==============

 Valence Basis Sets:   7
 -----------------------
   1 S    7.680000
   1 S    5.000000
   2 S    1.980000
   2 S    1.240000
   2 P    2.200000
   2 P    0.960000
   3 D    2.200000


 BAS: List of all Elementary Cartesian Basis Functions
 =====================================================

 The numbering in the list below (to the right of the function characteristics) is referred
 to in print-outs of MO eigenvectors and Mulliken populations in the BAS representation
 (as contrasted to the SFO representation).

 Notes:
 1. The functions are characterized by a polynomial prefactor (powers of x,y,z and r) and
    an exponential decay factor alpha.
 2. Since the basis sets are specific for an atom TYPE, the individual functions occur on
    all atoms of that type.
 3. The word 'Core' in the left margin signals that it is a Core Function (CF) : not a
    degree of freedom in the valence set, but only used to ensure orthogonalization of
    the other valence basis functions on the frozen Core Orbitals.


 (power of) X  Y  Z  R     Alpha  on Atom
            ==========     =====     ==========

 C                                    1
                                  ---------------------------------------------------------------------------
            0  0  0  0     7.680      1
            0  0  0  0     5.000      2
            0  0  0  1     1.980      3
            0  0  0  1     1.240      4
            1  0  0  0     2.200      5
            0  1  0  0     2.200      6
            0  0  1  0     2.200      7
            1  0  0  0     0.960      8
            0  1  0  0     0.960      9
            0  0  1  0     0.960     10
            2  0  0  0     2.200     11
            1  1  0  0     2.200     12
            1  0  1  0     2.200     13
            0  2  0  0     2.200     14
            0  1  1  0     2.200     15
            0  0  2  0     2.200     16

 Total number of charge fitting functions (nprimf)        84
 Total number of Cartesian basis functions (naos)         16
 Total number of Cartesian core functions  (ncos)          0



 BAS: List of all Elementary Cartesian Basis Functions
 =====================================================

 The numbering in the list below (to the right of the function characteristics) is referred
 to in print-outs of MO eigenvectors and Mulliken populations in the BAS representation
 (as contrasted to the SFO representation).

 Notes:
 1. The functions are characterized by a polynomial prefactor (powers of x,y,z and r) and
    an exponential decay factor alpha.
 2. Since the basis sets are specific for an atom TYPE, the individual functions occur on
    all atoms of that type.
 3. The word 'Core' in the left margin signals that it is a Core Function (CF) : not a
    degree of freedom in the valence set, but only used to ensure orthogonalization of
    the other valence basis functions on the frozen Core Orbitals.


 (power of) X  Y  Z  R     Alpha  on Atom
            ==========     =====     ==========

 C                                    1
                                  ---------------------------------------------------------------------------
            0  0  0  0     7.680      1
            0  0  0  0     5.000      2
            0  0  0  1     1.980      3
            0  0  0  1     1.240      4
            1  0  0  0     2.200      5
            0  1  0  0     2.200      6
            0  0  1  0     2.200      7
            1  0  0  0     0.960      8
            0  1  0  0     0.960      9
            0  0  1  0     0.960     10
            2  0  0  0     2.200     11
            1  1  0  0     2.200     12
            1  0  1  0     2.200     13
            0  2  0  0     2.200     14
            0  1  1  0     2.200     15
            0  0  2  0     2.200     16
1
 ***************************************************************************************************



                                              ***********************
                                              *  T E C H N I C A L  *
                                              ***********************
  



 =============================================================
 P A R A L L E L I Z A T I O N  and  V E C T O R I Z A T I O N
 =============================================================
  
 Nr of parallel processes:                                1
 Maximum vector length in NumInt loops:                 128



 =====================
 S C F   U P D A T E S
 =====================
  
 Max. nr. of cycles:                               300
 Convergence criterion:                              0.0000000100
   secondary criterion:                              0.0000000100

 Mix parameter (when DIIS does not apply):           0.2000000000
 Special mix parameter for the first cycle:          1.0000000000
 Mixed ADIIS+SDIIS will be used                  
    Max number of expansion vectors:                10
    Pure ADIIS when Max([F,P]) is above              0.1000000000
    Pure SDIIS when Max([F,P]) is below              0.0010000000
 Automatic ElectronSmearing (in case of problematic SCF convergence) disabled



 =================
 P R E C I S I O N  ***  (General: NumInt, NeglectFunctionTails, ...)  ***
 =================
  

 NumInt:           Target precision:                12.0000000000
 -------           Initial precision:               10.0000000000
                   Min. precision (optimization):   10.0000000000

 Neglect Functions:          Basis functions:        0.1000000000E-13
 ------------------          Fit functions:          0.1000000000E-13



 ===========================
 L I N E A R   S C A L I N G
 ===========================
  

 Cut-off radii density fit:                        0.1000000000E-97
 Overlap cut-off criterion AO matrix elements:     0.1000000000E-97
 Cut-offs for Coulomb potential and fitted density:0.1000000000E-97
 Cut-off criterion for Coulomb multipole terms:    0.1000000000E-97
 Progressive Convergence parameter:                 0.000000000    
1
 ***************************************************************************************************



                                            ***************************
                                            *  C O M P U T A T I O N  *
                                            ***************************
  

 Number of elements of the density matrix on this node (used, total):       136       136



 ===========================================
 Numerical Integration : Fuzzy Cells (Becke)
 ===========================================
  
 Becke grid quality: VERYGOOD       
  
 Lebedev angular grid order:             min:  13 max:  41
 Nr. of radial points:                   min:  72 max:  72

 Total nr. of points:         72
 Nr. of blocks:                1
 Block length:                72
 Nr. of dummy points:          0


 Test of Precision of the Numerical Integration Grid
 ===================================================

 Integral of the Total Core Density:                   0.00000000000000



 ========================
 Density Fitting (zlmFit)
 ========================
  
 ZlmFit Fit Quality: VERYGOOD       
  
 Max L-expansion:                        min:   0 max:   0
 Nr. of radial interpolation points:     min: 160 max: 160



 =====
 S C F  ***  ScaSCF  ***
 =====
  

 CYCLE    1
 SCF Error: norm([F,P])=      0.000000000000, max([F,P])=      0.000000000000
 orbitals (Q,E):
 ---------------
 S :1...4            ( 2.00   -17.9904)  ( 2.00    -4.3790)  ( 0.00    -1.9023)  ( 0.00    14.7299)
 P :1...2            ( 2.00    -4.2577)  ( 0.00    -1.7536)
 D :1...1            ( 0.00    -1.9800)

 CYCLE    2
 SCF Error: norm([F,P])=      3.727008238743, max([F,P])=      2.806949130152
 orbitals (Q,E):
 ---------------
 S :1...3            ( 2.00    -8.5647)  ( 2.00    -0.1226)  ( 0.00     0.8014)
 P :1...2            ( 2.00     0.1197)  ( 0.00     0.9563)
 D :1...1            ( 0.00     1.6337)

 CYCLE    3
  SDIIS (wt  0.000):  0.1863  0.8137
 A-DIIS (wt  1.000):  0.0525  0.9475
  DIIS coefficients:  0.0525  0.9475
 SCF Error: norm([F,P])=      1.071636001896, max([F,P])=      0.926529415312
 orbitals (Q,E):
 ---------------
 S :1...3            ( 2.00   -10.7786)  ( 2.00    -0.7910)  ( 0.00     0.2323)
 P :1...2            ( 2.00    -0.4748)  ( 0.00     0.2422)
 D :1...1            ( 0.00     0.9779)

 CYCLE    4
  SDIIS (wt  0.000):  0.3317  0.6683
 A-DIIS (wt  1.000):  0.1755  0.8245
  DIIS coefficients:  0.1755  0.8245
 SCF Error: norm([F,P])=      0.545115533412, max([F,P])=      0.428279404247
 orbitals (Q,E):
 ---------------
 S :1...3            ( 2.00    -9.8029)  ( 2.00    -0.4255)  ( 0.00     0.4761)
 P :1...2            ( 2.00    -0.1210)  ( 0.00     0.5318)
 D :1...1            ( 0.00     1.3122)

 CYCLE    5
  SDIIS (wt  0.000): -0.0363  0.2391  0.7973
 A-DIIS (wt  1.000):  0.0000  0.0000  1.0000
  DIIS coefficients:  0.0000  0.0000  1.0000
 SCF Error: norm([F,P])=      0.210904457265, max([F,P])=      0.173356992093
 orbitals (Q,E):
 ---------------
 S :1...3            ( 2.00   -10.2470)  ( 2.00    -0.5827)  ( 0.00     0.3614)
 P :1...2            ( 2.00    -0.2650)  ( 0.00     0.3878)
 D :1...1            ( 0.00     1.1636)

 CYCLE    6
  SDIIS (wt  0.000): -0.0073 -0.0845  0.3606  0.7312
 A-DIIS (wt  1.000):  0.0000  0.0000  0.3280  0.6720
  DIIS coefficients:  0.0000  0.0000  0.3280  0.6720
 SCF Error: norm([F,P])=      0.156317373022, max([F,P])=      0.125164812022
 orbitals (Q,E):
 ---------------
 S :1...3            ( 2.00   -10.0219)  ( 2.00    -0.4999)  ( 0.00     0.4194)
 P :1...2            ( 2.00    -0.1872)  ( 0.00     0.4587)
 D :1...1            ( 0.00     1.2407)

 CYCLE    7
  SDIIS (wt  0.786): -0.0009 -0.0058 -0.0294  0.1327  0.9034
 A-DIIS (wt  0.214):  0.0000  0.0000  0.0000  0.0000  1.0000
  DIIS coefficients: -0.0007 -0.0045 -0.0231  0.1043  0.9241
 SCF Error: norm([F,P])=      0.027373873641, max([F,P])=      0.022209604150
 orbitals (Q,E):
 ---------------
 S :1...3            ( 2.00   -10.0600)  ( 2.00    -0.5134)  ( 0.00     0.4096)
 P :1...2            ( 2.00    -0.1996)  ( 0.00     0.4465)
 D :1...1            ( 0.00     1.2280)

 CYCLE    8
  SDIIS (wt  0.975):  0.0000  0.0007  0.0014 -0.0159  0.0641  0.9497
 A-DIIS (wt  0.025):  0.0000  0.0000  0.0000  0.0000  0.0000  1.0000
  DIIS coefficients:  0.0000  0.0007  0.0013 -0.0155  0.0625  0.9510
 SCF Error: norm([F,P])=      0.004363804775, max([F,P])=      0.003523668371
 orbitals (Q,E):
 ---------------
 S :1...3            ( 2.00   -10.0546)  ( 2.00    -0.5114)  ( 0.00     0.4110)
 P :1...2            ( 2.00    -0.1977)  ( 0.00     0.4482)
 D :1...1            ( 0.00     1.2299)

 CYCLE    9
  SDIIS (wt  1.000):  0.0000  0.0000 -0.0002  0.0008  0.0022  0.9973
  DIIS coefficients:  0.0000  0.0000 -0.0002  0.0008  0.0022  0.9973
 SCF Error: norm([F,P])=      0.000084420651, max([F,P])=      0.000068071226
 orbitals (Q,E):
 ---------------
 S :1...3            ( 2.00   -10.0547)  ( 2.00    -0.5115)  ( 0.00     0.4110)
 P :1...2            ( 2.00    -0.1978)  ( 0.00     0.4482)
 D :1...1            ( 0.00     1.2299)

 CYCLE   10
  SDIIS (wt  1.000):  0.0000  0.0005  0.0257  0.9739
  DIIS coefficients:  0.0000  0.0005  0.0257  0.9739
 SCF Error: norm([F,P])=      0.000000088318, max([F,P])=      0.000000072114
 orbitals (Q,E):
 ---------------
 S :1...3            ( 2.00   -10.0547)  ( 2.00    -0.5115)  ( 0.00     0.4110)
 P :1...2            ( 2.00    -0.1978)  ( 0.00     0.4482)
 D :1...1            ( 0.00     1.2299)

 CYCLE   11
  SDIIS (wt  1.000):  0.0000 -0.0006  1.0006
  DIIS coefficients:  0.0000 -0.0006  1.0006
 SCF Error: norm([F,P])=      0.000000000556, max([F,P])=      0.000000000459
 orbitals (Q,E):
 ---------------
 S :1...3            ( 2.00   -10.0547)  ( 2.00    -0.5115)  ( 0.00     0.4110)
 P :1...2            ( 2.00    -0.1978)  ( 0.00     0.4482)
 D :1...1            ( 0.00     1.2299)

 SCF CONVERGED

 CYCLE   12
1
 ***************************************************************************************************



                                                *******************
                                                *  R E S U L T S  *
                                                *******************
  
 *** Using FIT density in Focky
  SDIIS (wt  1.000):  0.0001 -0.0149  1.0149
  DIIS coefficients:  0.0001 -0.0149  1.0149
 SCF Error: norm([F,P])=      0.000000000003, max([F,P])=      0.000000000003

 Scaled ZORA Orbital Energies, per Irrep and Spin:
 =================================================
                        Occup              E (au)              E (eV)       Diff (eV) with prev. cycle
[...]
 <Apr01-2020> <23:33:48>      8      0.00016782      0.00003914      0.0
 <Apr01-2020> <23:33:49>      9      0.00004250      0.00000974      0.0
 <Apr01-2020> <23:33:50>     10      0.00000679      0.00000117      0.0
 <Apr01-2020> <23:33:50>     11      0.00000274      0.00000056      0.0
 <Apr01-2020> <23:33:50>  SCF converged
 <Apr01-2020> <23:33:51>     12      0.00000053      0.00000009      0.0
 <Apr01-2020> <23:33:51>  >>>> TOTEN
 <Apr01-2020> <23:33:53>  >>>> POPAN
 <Apr01-2020> <23:33:53>  >>>> DEBYE
 <Apr01-2020> <23:33:53>  >>>> ENGRAD
 <Apr01-2020> <23:33:54>  current energy                               -2.72166926 Hartree
 <Apr01-2020> <23:33:54>  energy change                      -0.00032186     0.00100000    T
 <Apr01-2020> <23:33:54>  constrained gradient max            0.01203697     0.00100000    F
 <Apr01-2020> <23:33:54>  constrained gradient rms            0.00346639     0.00066667    F
 <Apr01-2020> <23:33:54>  gradient max                        0.01203697
 <Apr01-2020> <23:33:54>  gradient rms                        0.00346639
 <Apr01-2020> <23:33:54>  cart. step max                      0.03208572     0.01000000    F
 <Apr01-2020> <23:33:54>  cart. step rms                      0.01394904     0.00666667    F
  Coordinates in Geometry Cycle 7
    Atom         X           Y           Z   (Angstrom)
    1.O         1.505598   -0.909538    0.548399
    2.O         1.112757    0.863218   -0.820429
    3.N        -1.399748    1.166470    0.318799
    4.C        -0.747584   -0.140305    0.382747
    5.C        -1.358616   -1.242454   -0.508763
    6.C         0.703524    0.037758   -0.028919
    7.H        -0.756234   -0.490171    1.429503
    8.H        -0.819955   -2.194597   -0.392811
    9.H        -2.408666   -1.405047   -0.227136
   10.H        -1.323303   -0.939552   -1.565853
   11.H        -2.415557    1.044072    0.309754
   12.H        -1.138136    1.620605   -0.562846
   13.H         2.401720   -0.750559    0.167354
 <Apr01-2020> <23:33:54>  >>>> CORORT
 <Apr01-2020> <23:33:54>  >>>> CLSMAT
 <Apr01-2020> <23:33:54>  >>>> ORTHON
 <Apr01-2020> <23:33:54>  >>>> GENPT
 <Apr01-2020> <23:33:54>  Block Length= 128
 <Apr01-2020> <23:33:55>  >>>> PTBAS
 <Apr01-2020> <23:33:55>  >>>> CYCLE
 <Apr01-2020> <23:33:55>              |Error|         MaxErr       Wt(A-DIIS)
 <Apr01-2020> <23:33:55>      1      0.11049210      0.03833891
 <Apr01-2020> <23:33:56>      2      0.00854862      0.00168575    100.0
 <Apr01-2020> <23:33:56>      3      0.00526899      0.00112610    100.0
 <Apr01-2020> <23:33:57>      4      0.00466185      0.00071168      0.0
 <Apr01-2020> <23:33:57>      5      0.00191686      0.00049606      0.0
 <Apr01-2020> <23:33:58>      6      0.00040673      0.00012855      0.0
 <Apr01-2020> <23:33:59>      7      0.00015926      0.00004019      0.0
 <Apr01-2020> <23:33:59>      8      0.00002144      0.00000370      0.0
 <Apr01-2020> <23:34:00>      9      0.00000546      0.00000139      0.0
 <Apr01-2020> <23:34:00>     10      0.00000223      0.00000062      0.0
 <Apr01-2020> <23:34:00>  SCF converged
 <Apr01-2020> <23:34:01>     11      0.00000018      0.00000003      0.0
 <Apr01-2020> <23:34:01>  >>>> TOTEN
 <Apr01-2020> <23:34:04>  >>>> POPAN
 <Apr01-2020> <23:34:04>  >>>> DEBYE
 <Apr01-2020> <23:34:04>  >>>> ENGRAD
 <Apr01-2020> <23:34:05>  current energy                               -2.72183806 Hartree
 <Apr01-2020> <23:34:05>  energy change                      -0.00016880     0.00100000    T
 <Apr01-2020> <23:34:05>  constrained gradient max            0.00355890     0.00100000    F
 <Apr01-2020> <23:34:05>  constrained gradient rms            0.00095297     0.00066667    F
 <Apr01-2020> <23:34:05>  gradient max                        0.00355890
 <Apr01-2020> <23:34:05>  gradient rms                        0.00095297
 <Apr01-2020> <23:34:05>  cart. step max                      0.00665755     0.01000000    T
 <Apr01-2020> <23:34:05>  cart. step rms                      0.00246433     0.00666667    T
  Coordinates in Geometry Cycle 8
    Atom         X           Y           Z   (Angstrom)
    1.O         1.505006   -0.908236    0.547552
    2.O         1.113571    0.869876   -0.817362
    3.N        -1.399495    1.165593    0.319014
    4.C        -0.745598   -0.141478    0.381149
    5.C        -1.360897   -1.242789   -0.508072
    6.C         0.705085    0.036823   -0.032955
    7.H        -0.751932   -0.491529    1.427876
    8.H        -0.825012   -2.196969   -0.393813
    9.H        -2.410522   -1.403644   -0.223746
   10.H        -1.326556   -0.940156   -1.565239
   11.H        -2.414973    1.041190    0.305139
   12.H        -1.135879    1.620416   -0.561845
   13.H         2.403003   -0.749197    0.172102
 <Apr01-2020> <23:34:05>  >>>> CORORT
 <Apr01-2020> <23:34:05>  >>>> CLSMAT
 <Apr01-2020> <23:34:05>  >>>> ORTHON
 <Apr01-2020> <23:34:05>  >>>> GENPT
 <Apr01-2020> <23:34:05>  Block Length= 128
 <Apr01-2020> <23:34:05>  >>>> PTBAS
 <Apr01-2020> <23:34:05>  >>>> CYCLE
 <Apr01-2020> <23:34:06>              |Error|         MaxErr       Wt(A-DIIS)
 <Apr01-2020> <23:34:06>      1      0.02325535      0.00850240
 <Apr01-2020> <23:34:07>      2      0.00222810      0.00038591    100.0
 <Apr01-2020> <23:34:07>      3      0.00126022      0.00020870    100.0
 <Apr01-2020> <23:34:08>      4      0.00134366      0.00032011      0.0
 <Apr01-2020> <23:34:08>      5      0.00050010      0.00015848      0.0
 <Apr01-2020> <23:34:09>      6      0.00012072      0.00002294      0.0
 <Apr01-2020> <23:34:09>      7      0.00003585      0.00000619      0.0
 <Apr01-2020> <23:34:10>      8      0.00000643      0.00000101      0.0
 <Apr01-2020> <23:34:10>      9      0.00000158      0.00000029      0.0
 <Apr01-2020> <23:34:10>  SCF converged
 <Apr01-2020> <23:34:11>     10      0.00000033      0.00000007      0.0
 <Apr01-2020> <23:34:11>  >>>> TOTEN
 <Apr01-2020> <23:34:13>  >>>> POPAN
 <Apr01-2020> <23:34:13>  >>>> DEBYE
 <Apr01-2020> <23:34:13>  >>>> ENGRAD
 <Apr01-2020> <23:34:14>  current energy                               -2.72185760 Hartree
 <Apr01-2020> <23:34:14>  energy change                      -0.00001954     0.00100000    T
 <Apr01-2020> <23:34:14>  constrained gradient max            0.00070554     0.00100000    T
 <Apr01-2020> <23:34:14>  constrained gradient rms            0.00029683     0.00066667    T
 <Apr01-2020> <23:34:14>  gradient max                        0.00070554
 <Apr01-2020> <23:34:14>  gradient rms                        0.00029683
 <Apr01-2020> <23:34:14>  cart. step max                      0.01134034     0.01000000    F
 <Apr01-2020> <23:34:14>  cart. step rms                      0.00343927     0.00666667    T
  Coordinates in Geometry Cycle 9
    Atom         X           Y           Z   (Angstrom)
    1.O         1.506607   -0.904305    0.548889
    2.O         1.110240    0.867895   -0.821975
    3.N        -1.400089    1.164195    0.321586
    4.C        -0.745519   -0.143193    0.381712
    5.C        -1.362966   -1.243078   -0.507526
    6.C         0.704693    0.036250   -0.034384
    7.H        -0.750224   -0.494512    1.428152
    8.H        -0.828421   -2.198374   -0.395352
    9.H        -2.412153   -1.403378   -0.221249
   10.H        -1.329827   -0.939230   -1.564424
   11.H        -2.415155    1.038110    0.293799
   12.H        -1.126415    1.624007   -0.553794
   13.H         2.405029   -0.744487    0.174365
 <Apr01-2020> <23:34:14>  >>>> CORORT
 <Apr01-2020> <23:34:14>  >>>> CLSMAT
 <Apr01-2020> <23:34:14>  >>>> ORTHON
 <Apr01-2020> <23:34:14>  >>>> GENPT
 <Apr01-2020> <23:34:15>  Block Length= 128
 <Apr01-2020> <23:34:15>  >>>> PTBAS
 <Apr01-2020> <23:34:15>  >>>> CYCLE
 <Apr01-2020> <23:34:16>              |Error|         MaxErr       Wt(A-DIIS)
 <Apr01-2020> <23:34:16>      1      0.01706373      0.00398502
 <Apr01-2020> <23:34:16>      2      0.00284007      0.00065118    100.0
 <Apr01-2020> <23:34:17>      3      0.00421815      0.00087132    100.0
 <Apr01-2020> <23:34:17>      4      0.00178306      0.00047448      0.0
 <Apr01-2020> <23:34:18>      5      0.00057589      0.00014132      0.0
 <Apr01-2020> <23:34:18>      6      0.00011234      0.00002380      0.0
 <Apr01-2020> <23:34:19>      7      0.00003649      0.00000726      0.0
 <Apr01-2020> <23:34:19>      8      0.00001005      0.00000213      0.0
 <Apr01-2020> <23:34:20>      9      0.00000284      0.00000065      0.0
 <Apr01-2020> <23:34:20>  SCF converged
 <Apr01-2020> <23:34:20>     10      0.00000056      0.00000009      0.0
 <Apr01-2020> <23:34:20>  >>>> TOTEN
 <Apr01-2020> <23:34:23>  >>>> POPAN
 <Apr01-2020> <23:34:23>  >>>> DEBYE
 <Apr01-2020> <23:34:23>  >>>> ENGRAD
 <Apr01-2020> <23:34:24>  current energy                               -2.72186413 Hartree
 <Apr01-2020> <23:34:24>  energy change                      -0.00000653     0.00100000    T
 <Apr01-2020> <23:34:24>  constrained gradient max            0.00052989     0.00100000    T
 <Apr01-2020> <23:34:24>  constrained gradient rms            0.00016795     0.00066667    T
 <Apr01-2020> <23:34:24>  gradient max                        0.00052989
 <Apr01-2020> <23:34:24>  gradient rms                        0.00016795
 <Apr01-2020> <23:34:24>  cart. step max                      0.01055339     0.01000000    F
 <Apr01-2020> <23:34:24>  cart. step rms                      0.00265678     0.00666667    T
  Coordinates in Geometry Cycle 10
    Atom         X           Y           Z   (Angstrom)
    1.O         1.506642   -0.905758    0.545105
    2.O         1.110855    0.872742   -0.817191
    3.N        -1.402102    1.163622    0.321855
    4.C        -0.745580   -0.143409    0.382038
    5.C        -1.363469   -1.243411   -0.505926
    6.C         0.705098    0.037451   -0.033504
    7.H        -0.749198   -0.494398    1.428807
    8.H        -0.829854   -2.199186   -0.393482
    9.H        -2.412538   -1.402846   -0.218714
   10.H        -1.330820   -0.940556   -1.563194
   11.H        -2.416569    1.034734    0.283246
   12.H        -1.121787    1.626594   -0.549889
   13.H         2.405121   -0.745678    0.170649
 <Apr01-2020> <23:34:24>  >>>> CORORT
 <Apr01-2020> <23:34:24>  >>>> CLSMAT
 <Apr01-2020> <23:34:24>  >>>> ORTHON
 <Apr01-2020> <23:34:24>  >>>> GENPT
 <Apr01-2020> <23:34:24>  Block Length= 128
 <Apr01-2020> <23:34:24>  >>>> PTBAS
 <Apr01-2020> <23:34:24>  >>>> CYCLE
 <Apr01-2020> <23:34:25>              |Error|         MaxErr       Wt(A-DIIS)
 <Apr01-2020> <23:34:25>      1      0.01664334      0.00525155
 <Apr01-2020> <23:34:26>      2      0.00206703      0.00053914    100.0
 <Apr01-2020> <23:34:26>      3      0.00183436      0.00042082    100.0
 <Apr01-2020> <23:34:27>      4      0.00106967      0.00030941      0.0
 <Apr01-2020> <23:34:27>      5      0.00019901      0.00005116      0.0
 <Apr01-2020> <23:34:28>      6      0.00013421      0.00003551      0.0
 <Apr01-2020> <23:34:28>      7      0.00002312      0.00000517      0.0
 <Apr01-2020> <23:34:29>      8      0.00000478      0.00000067      0.0
 <Apr01-2020> <23:34:29>  SCF converged
 <Apr01-2020> <23:34:29>      9      0.00000092      0.00000017      0.0
 <Apr01-2020> <23:34:29>  >>>> TOTEN
 <Apr01-2020> <23:34:32>  >>>> POPAN
 <Apr01-2020> <23:34:32>  >>>> DEBYE
 <Apr01-2020> <23:34:32>  >>>> ENGRAD
 <Apr01-2020> <23:34:33>  current energy                               -2.72187280 Hartree
 <Apr01-2020> <23:34:33>  energy change                      -0.00000867     0.00100000    T
 <Apr01-2020> <23:34:33>  constrained gradient max            0.00047358     0.00100000    T
 <Apr01-2020> <23:34:33>  constrained gradient rms            0.00014470     0.00066667    T
 <Apr01-2020> <23:34:33>  gradient max                        0.00047358
 <Apr01-2020> <23:34:33>  gradient rms                        0.00014470
 <Apr01-2020> <23:34:33>  cart. step max                      0.01125431     0.01000000    F
 <Apr01-2020> <23:34:33>  cart. step rms                      0.00324526     0.00666667    T
  Coordinates in Geometry Cycle 11
    Atom         X           Y           Z   (Angstrom)
    1.O         1.505271   -0.909797    0.538585
    2.O         1.111638    0.879434   -0.810127
    3.N        -1.404412    1.163289    0.321624
    4.C        -0.746003   -0.143179    0.382671
    5.C        -1.363233   -1.243964   -0.503834
    6.C         0.704912    0.039006   -0.032348
    7.H        -0.748478   -0.493435    1.429857
    8.H        -0.829589   -2.199513   -0.390180
    9.H        -2.412256   -1.403225   -0.216323
   10.H        -1.330880   -0.942700   -1.561597
   11.H        -2.418172    1.032156    0.271991
   12.H        -1.116943    1.629547   -0.546116
   13.H         2.403944   -0.747718    0.165597
 <Apr01-2020> <23:34:33>  >>>> CORORT
 <Apr01-2020> <23:34:33>  >>>> CLSMAT
 <Apr01-2020> <23:34:33>  >>>> ORTHON
 <Apr01-2020> <23:34:33>  >>>> GENPT
 <Apr01-2020> <23:34:33>  Block Length= 128
 <Apr01-2020> <23:34:33>  >>>> PTBAS
 <Apr01-2020> <23:34:34>  >>>> CYCLE
 <Apr01-2020> <23:34:34>              |Error|         MaxErr       Wt(A-DIIS)
 <Apr01-2020> <23:34:34>      1      0.02441957      0.00811091
 <Apr01-2020> <23:34:35>      2      0.00223567      0.00055639    100.0
 <Apr01-2020> <23:34:35>      3      0.00294908      0.00066145    100.0
 <Apr01-2020> <23:34:36>      4      0.00174950      0.00053667      0.0
 <Apr01-2020> <23:34:36>      5      0.00036885      0.00008886      0.0
 <Apr01-2020> <23:34:37>      6      0.00009693      0.00002449      0.0
 <Apr01-2020> <23:34:37>      7      0.00001951      0.00000486      0.0
 <Apr01-2020> <23:34:38>      8      0.00000818      0.00000216      0.0
 <Apr01-2020> <23:34:39>      9      0.00000162      0.00000032      0.0
 <Apr01-2020> <23:34:39>  SCF converged
 <Apr01-2020> <23:34:39>     10      0.00000054      0.00000010      0.0
 <Apr01-2020> <23:34:39>  >>>> TOTEN
 <Apr01-2020> <23:34:41>  >>>> POPAN
 <Apr01-2020> <23:34:41>  >>>> DEBYE
 <Apr01-2020> <23:34:42>  >>>> ENGRAD
 <Apr01-2020> <23:34:43>  current energy                               -2.72187978 Hartree
 <Apr01-2020> <23:34:43>  energy change                      -0.00000698     0.00100000    T
 <Apr01-2020> <23:34:43>  constrained gradient max            0.00058926     0.00100000    T
 <Apr01-2020> <23:34:43>  constrained gradient rms            0.00021847     0.00066667    T
 <Apr01-2020> <23:34:43>  gradient max                        0.00058926
 <Apr01-2020> <23:34:43>  gradient rms                        0.00021847
 <Apr01-2020> <23:34:43>  cart. step max                      0.01055163     0.01000000    F
 <Apr01-2020> <23:34:43>  cart. step rms                      0.00312483     0.00666667    T
  Coordinates in Geometry Cycle 12
    Atom         X           Y           Z   (Angstrom)
    1.O         1.503526   -0.913563    0.532620
    2.O         1.111793    0.885322   -0.803843
    3.N        -1.406508    1.162951    0.321391
    4.C        -0.746680   -0.142799    0.383442
    5.C        -1.362795   -1.244799   -0.501869
    6.C         0.704066    0.040288   -0.031587
    7.H        -0.748155   -0.492442    1.430902
    8.H        -0.828182   -2.199576   -0.386804
    9.H        -2.411769   -1.404761   -0.214490
   10.H        -1.330685   -0.944894   -1.560014
   11.H        -2.419574    1.030860    0.261440
   12.H        -1.111343    1.632960   -0.541753
   13.H         2.402107   -0.749646    0.160365
 <Apr01-2020> <23:34:43>  >>>> CORORT
 <Apr01-2020> <23:34:43>  >>>> CLSMAT
 <Apr01-2020> <23:34:43>  >>>> ORTHON
 <Apr01-2020> <23:34:43>  >>>> GENPT
 <Apr01-2020> <23:34:43>  Block Length= 128
 <Apr01-2020> <23:34:43>  >>>> PTBAS
 <Apr01-2020> <23:34:43>  >>>> CYCLE
 <Apr01-2020> <23:34:44>              |Error|         MaxErr       Wt(A-DIIS)
 <Apr01-2020> <23:34:44>      1      0.02223004      0.00741685
 <Apr01-2020> <23:34:44>      2      0.00223871      0.00055927    100.0
 <Apr01-2020> <23:34:45>      3      0.00365642      0.00092904    100.0
 <Apr01-2020> <23:34:45>      4      0.00126839      0.00038600      0.0
 <Apr01-2020> <23:34:46>      5      0.00027855      0.00007742      0.0
 <Apr01-2020> <23:34:46>      6      0.00010256      0.00002594      0.0
 <Apr01-2020> <23:34:47>      7      0.00001904      0.00000574      0.0
 <Apr01-2020> <23:34:48>      8      0.00000819      0.00000218      0.0
 <Apr01-2020> <23:34:48>      9      0.00000132      0.00000018      0.0
 <Apr01-2020> <23:34:48>  SCF converged
 <Apr01-2020> <23:34:49>     10      0.00000046      0.00000009      0.0
 <Apr01-2020> <23:34:49>  >>>> TOTEN
 <Apr01-2020> <23:34:51>  >>>> POPAN
 <Apr01-2020> <23:34:51>  >>>> DEBYE
 <Apr01-2020> <23:34:51>  >>>> ENGRAD
 <Apr01-2020> <23:34:52>  current energy                               -2.72188425 Hartree
 <Apr01-2020> <23:34:52>  energy change                      -0.00000447     0.00100000    T
 <Apr01-2020> <23:34:52>  constrained gradient max            0.00073550     0.00100000    T
 <Apr01-2020> <23:34:52>  constrained gradient rms            0.00021771     0.00066667    T
 <Apr01-2020> <23:34:52>  gradient max                        0.00073550
 <Apr01-2020> <23:34:52>  gradient rms                        0.00021771
 <Apr01-2020> <23:34:52>  cart. step max                      0.00465585     0.01000000    T
 <Apr01-2020> <23:34:52>  cart. step rms                      0.00179089     0.00666667    T
 <Apr01-2020> <23:34:52>  GEOMETRY CONVERGED
 <Apr01-2020> <23:34:52>  Calculating Energy Terms for Final Geometry
  Coordinates in Geometry Cycle 12
    Atom         X           Y           Z   (Angstrom)
    1.O         1.503526   -0.913563    0.532620
    2.O         1.111793    0.885322   -0.803843
    3.N        -1.406508    1.162951    0.321391
    4.C        -0.746680   -0.142799    0.383442
    5.C        -1.362795   -1.244799   -0.501869
    6.C         0.704066    0.040288   -0.031587
    7.H        -0.748155   -0.492442    1.430902
    8.H        -0.828182   -2.199576   -0.386804
    9.H        -2.411769   -1.404761   -0.214490
   10.H        -1.330685   -0.944894   -1.560014
   11.H        -2.419574    1.030860    0.261440
   12.H        -1.111343    1.632960   -0.541753
   13.H         2.402107   -0.749646    0.160365
 <Apr01-2020> <23:34:52>  >>>> CORORT
 <Apr01-2020> <23:34:52>  >>>> CLSMAT
 <Apr01-2020> <23:34:52>  >>>> ORTHON
 <Apr01-2020> <23:34:52>  >>>> GENPT
 <Apr01-2020> <23:34:52>  Block Length= 128
 <Apr01-2020> <23:34:53>  >>>> PTBAS
 <Apr01-2020> <23:34:53>  >>>> CYCLE
 <Apr01-2020> <23:34:53>              |Error|         MaxErr       Wt(A-DIIS)
 <Apr01-2020> <23:34:53>      1      0.00000007      0.00000002
 <Apr01-2020> <23:34:54>      2      0.00000010      0.00000003    100.0
 <Apr01-2020> <23:34:54>  SCF converged
 <Apr01-2020> <23:34:55>      3      0.00000005      0.00000001    100.0
 <Apr01-2020> <23:34:55>  >>>> TOTEN
 <Apr01-2020> <23:34:58>  >>>> POPAN
 <Apr01-2020> <23:34:58>  >>>> DEBYE
 <Apr01-2020> <23:34:58>  >>>> AMETS
 <Apr01-2020> <23:34:58>  >>>> POPUL
 <Apr01-2020> <23:34:58>   Bond Energy          -2.72188425 a.u.
 <Apr01-2020> <23:34:58>   Bond Energy         -74.06623890 eV
 <Apr01-2020> <23:34:58>   Bond Energy       -1708.01       kcal/mol
 <Apr01-2020> <23:34:58>  >>>> ENHESS
 <Apr01-2020> <23:34:59>  === NUCLEUS:     1
 <Apr01-2020> <23:35:15>  === NUCLEUS:     2
 <Apr01-2020> <23:35:28>  === NUCLEUS:     3
 <Apr01-2020> <23:35:41>  === NUCLEUS:     4
 <Apr01-2020> <23:35:57>  === NUCLEUS:     5
 <Apr01-2020> <23:36:11>  === NUCLEUS:     6
 <Apr01-2020> <23:36:26>  === NUCLEUS:     7
 <Apr01-2020> <23:36:41>  === NUCLEUS:     8
 <Apr01-2020> <23:36:54>  === NUCLEUS:     9
 <Apr01-2020> <23:37:11>  === NUCLEUS:    10
 <Apr01-2020> <23:37:24>  === NUCLEUS:    11
 <Apr01-2020> <23:37:37>  === NUCLEUS:    12
 <Apr01-2020> <23:37:52>  === NUCLEUS:    13
 <Apr01-2020> <23:38:07>  >>>> CALC_HESS_PMAT
 <Apr01-2020> <23:38:09>  >>>> CALC_HESS_WMAT
 <Apr01-2020> <23:38:10>  NORMAL TERMINATION
 <Apr01-2020> <23:38:10>  END
