
 *******************************************************************************
 *                                                                             *
 *  --------------------------------                                           *
 *   Amsterdam Modeling Suite (AMS)              2019.303                      *
 *  --------------------------------                                           *
 *                                               r81909 2020-02-21             *
 *                                                                             *
 *                                                                             *
 *                            =====================                            *
 *                            |                   |                            *
 *                            |     D I R A C     |                            *
 *                            |                   |                            *
 *                            =====================                            *
 *                                                                             *
 *                                                                             *
 *   Online information and documentation:  https://www.scm.com/support/       *
 *   E-mail:  support@scm.com   info@scm.com                                   *
 *                                                                             *
 *   Scientific publications using AMS results must be properly referenced     *
 *   See the User Manuals (or the web site) for recommended citations          *
 *   The terms and conditions of the End User License Agreement apply to       *
 *   the use of AMS, https://www.scm.com/license-terms/                        *
 *                                                                             *
 *********************  x86_64_windows_intel / intelmpi  ***********************
 
 Licensed to: Student project account / Theoretische chemie, Vrije Universiteit / Amsterdam / NETHERLANDS
 SCM User ID: u20153
  
 DIRAC 2019.303  RunTime: Apr01-2020 20:41:54  Nodes: 1  Procs: 1

 Temporary files are created in D:\SCMTMP\/kid_0.295105573
1
 HYDROGEN ATOM RELATIVISTIC, Point Nuc, A and c from libtc   
 N J RN H ZN XION ANUC CLIGHT
 5000    1100.00000000197.36710137  1.00000000  0.00000000    1.007825  0.1370360E+03
  PH   PHI     EPS        DEL        DELRVR
  0.30  0.30     2500.00  0.00001000  0.00001000
 IDIRC  NC1  NDEBU NPRIN  IPUN IRCOR IWCOR
   1   300     0     0     0     0     0
   XALPHA      XLATTER      RNUC
  0.70000000  0.00000000  0.00000000 Point Charge
   XN   XL   XJ      XE          XZ      XDELL
  1.0  0.0  0.5      -1.000       1.000     0.00000
 ICORP=  0  NPCL=  0  DEMP=0.00  PEPS=0.000000
 R(1)=  0.1000000E-08 D=  0.1005080E+01 RNUC=  0.0000000E+00
 converged at cycle   32  DENSITY AVERAGING    0.2400
  MAXIMUM ERROR IN R.V(R) IS   0.79874357E-05
 Q,EY,EV,EZ,ESUM,ETOT,RHO  0.100000E+01 -0.266614E+00 -0.619969E+00 -0.910779E+00 -0.203940E+00 -0.415998E+00  0.337036E-17


 DIRAC CALCULATION
1                    HYDROGEN ATOM RELATIVISTIC, Point Nuc, A and c from libtc


 EXCHANGE COEFFICIENT=  0.7000000           TAIL CORRECTION=  0.           NUCLEAR RADIUS=  0.000E+00
0                       ORBITAL    N    L    J     ELECTRONS     EIGENVALUE                DELTA OF EIGENV.

                          1S1/2  1.0  0.0  0.5     1.000       -0.2039397E+00                 0.2720093E-06


                                        NUCLEAR CHARGE=    1.000000
                            INTEGRAL OF CHARGE DENSITY=    1.000000
                           SUM OF THE ORBITAL ENERGIES=     -0.2039
                                          TOTAL ENERGY=     -0.4160
                                        KINETIC ENERGY=      0.4160
                             NUCLEAR ATTRACTION ENERGY=     -0.9108
                             ELECTRON REPULSION ENERGY=      0.2787
                                       EXCHANGE ENERGY=     -0.2000

 *******************************************************************************

                             D I R A C   E X I T
 NORMAL TERMINATION



 =================
 Timing Statistics
 =================
  
 Total Used :                     CPU=        0.09      System=        0.00     Elapsed=        0.11

 Calls  Section                     ( Mean, Percentage )
 ---------------------------------------------------------------------------------------------------
     2  ><      ................      0.00    0.00             0.00    0.00             0.00    0.00
     1  EXIT PROCEDURE .........      0.09  100.00             0.00    0.00             0.11  100.00


 Currently Open Files (EXIT00)
 ====================

 Unit    Access Format  Status   Type       Ident (file)
 -------------------------------------------------------
   3      SEQ    FORM   TRANSP  NORMAL      LOGFILE
                                          ( logfile )
 
Create H   file=DZP-H
XC
  GGA PBE
End
relativistic ZORA
Corepotentials t12.rel
End

 *******************************************************************************
 *                                                                             *
 *  --------------------------------                                           *
 *   Amsterdam Modeling Suite (AMS)              2019.303                      *
 *  --------------------------------                                           *
 *                                               r81909 2020-02-21             *
 *                                                                             *
 *                                                                             *
 *                              =================                              *
 *                              |               |                              *
 *                              |     A D F     |                              *
 *                              |               |                              *
 *                              =================                              *
 *                                                                             *
 *                                                                             *
 *   Online information and documentation:  https://www.scm.com/support/       *
 *   E-mail:  support@scm.com   info@scm.com                                   *
 *                                                                             *
 *   Scientific publications using AMS results must be properly referenced     *
 *   See the User Manuals (or the web site) for recommended citations          *
 *   The terms and conditions of the End User License Agreement apply to       *
 *   the use of AMS, https://www.scm.com/license-terms/                        *
 *                                                                             *
 *********************  x86_64_windows_intel / intelmpi  ***********************
 
 Licensed to: Student project account / Theoretische chemie, Vrije Universiteit / Amsterdam / NETHERLANDS
 SCM User ID: u20153
  
 ADF 2019.303  RunTime: Apr01-2020 20:41:55  Nodes: 1  Procs: 1

 Temporary files are created in D:\SCMTMP\/kid_0.1106994229
 Hydrogen (DZP)



 ===========================
 A T T A C H E D   F I L E S
 ===========================
  
 CREATE - Data File:    DZP-H
                        Hydrogen (DZP)
 Core Potentials:
         file : t12.rel



 ===============================
 M O D E L   P A R A M E T E R S
 ===============================
  
 DENSITY FUNCTIONAL POTENTIAL (scf)
    LDA:                               PW92                                    == Not Default ==
    Gradient Corrections:              PBEc PBEx                               == Not Default ==

 SPIN  (restricted / unrestr.)
    Molecule:                          Restricted                               

 OTHER ASPECTS
    Relativistic Corrections:          scalar (ZORA,MAPA)                      == Not Default ==

    Nuclear Charge Density Model:      Point Charge Nuclei                      
    Core Treatment:                    Frozen Orbital(s)                        

    Hyperfine or Zeeman Interaction:   ---                                      



 =====================================
 S Y M M E T R Y ,   E L E C T R O N S
 =====================================
  
 Symmetry: ATOM

 Irreducible Representations, including subspecies
 -------------------------------------------------
 S
 P:x  P:y  P:z
 D:z2  D:x2-y2  D:xy  D:xz  D:yz
 F:z3  F:z  F:xyz  F:z2x  F:z2y  F:x  F:y


 Configuration of Valence Electrons
 ==================================

          Occupation Numbers
          -------------------------------------------------
 S        1
 P        0
 D        0
 F        0
          -------------------------------------------------

 Total:   1

 Net Charge: 0 (Nuclei minus Electrons)

 Preset values for MO occupations will be applied through SCF cycle no. 1000000
 Thereafter, the program will assign electrons to MOs that are spatially
 similar to the occupied MOs in a "reference" cycle ("KeepOrbitals").
 The reference cycle is always the PREVIOUS cycle: it will evolve with
 the SCF procedure.



 ================================
 (Slater-type)  F U N C T I O N S  ***  (Basis and Fit)  ***
 ================================
  

 Atom Type    1  (H)
 ==============

 Valence Basis Sets:   3
 -----------------------
   1 S    0.760000
   1 S    1.280000
   2 P    1.250000


 BAS: List of all Elementary Cartesian Basis Functions
 =====================================================

 The numbering in the list below (to the right of the function characteristics) is referred
 to in print-outs of MO eigenvectors and Mulliken populations in the BAS representation
 (as contrasted to the SFO representation).

 Notes:
 1. The functions are characterized by a polynomial prefactor (powers of x,y,z and r) and
    an exponential decay factor alpha.
 2. Since the basis sets are specific for an atom TYPE, the individual functions occur on
    all atoms of that type.
 3. The word 'Core' in the left margin signals that it is a Core Function (CF) : not a
    degree of freedom in the valence set, but only used to ensure orthogonalization of
    the other valence basis functions on the frozen Core Orbitals.


 (power of) X  Y  Z  R     Alpha  on Atom
            ==========     =====     ==========

 H                                    1
                                  ---------------------------------------------------------------------------
            0  0  0  0     0.760      1
            0  0  0  0     1.280      2
            1  0  0  0     1.250      3
            0  1  0  0     1.250      4
            0  0  1  0     1.250      5

 Total number of charge fitting functions (nprimf)        50
 Total number of Cartesian basis functions (naos)          5
 Total number of Cartesian core functions  (ncos)          0



 BAS: List of all Elementary Cartesian Basis Functions
 =====================================================

 The numbering in the list below (to the right of the function characteristics) is referred
 to in print-outs of MO eigenvectors and Mulliken populations in the BAS representation
 (as contrasted to the SFO representation).

 Notes:
 1. The functions are characterized by a polynomial prefactor (powers of x,y,z and r) and
    an exponential decay factor alpha.
 2. Since the basis sets are specific for an atom TYPE, the individual functions occur on
    all atoms of that type.
 3. The word 'Core' in the left margin signals that it is a Core Function (CF) : not a
    degree of freedom in the valence set, but only used to ensure orthogonalization of
    the other valence basis functions on the frozen Core Orbitals.


 (power of) X  Y  Z  R     Alpha  on Atom
            ==========     =====     ==========

 H                                    1
                                  ---------------------------------------------------------------------------
            0  0  0  0     0.760      1
            0  0  0  0     1.280      2
            1  0  0  0     1.250      3
            0  1  0  0     1.250      4
            0  0  1  0     1.250      5
1
 ***************************************************************************************************



                                              ***********************
                                              *  T E C H N I C A L  *
                                              ***********************
  



 =============================================================
 P A R A L L E L I Z A T I O N  and  V E C T O R I Z A T I O N
 =============================================================
  
 Nr of parallel processes:                                1
 Maximum vector length in NumInt loops:                 128



 =====================
 S C F   U P D A T E S
 =====================
  
 Max. nr. of cycles:                               300
 Convergence criterion:                              0.0000000100
   secondary criterion:                              0.0000000100

 Mix parameter (when DIIS does not apply):           0.2000000000
 Special mix parameter for the first cycle:          1.0000000000
 Mixed ADIIS+SDIIS will be used                  
    Max number of expansion vectors:                10
    Pure ADIIS when Max([F,P]) is above              0.1000000000
    Pure SDIIS when Max([F,P]) is below              0.0010000000
 Automatic ElectronSmearing (in case of problematic SCF convergence) disabled



 =================
 P R E C I S I O N  ***  (General: NumInt, NeglectFunctionTails, ...)  ***
 =================
  

 NumInt:           Target precision:                12.0000000000
 -------           Initial precision:               10.0000000000
                   Min. precision (optimization):   10.0000000000

 Neglect Functions:          Basis functions:        0.1000000000E-13
 ------------------          Fit functions:          0.1000000000E-13



 ===========================
 L I N E A R   S C A L I N G
 ===========================
  

 Cut-off radii density fit:                        0.1000000000E-97
 Overlap cut-off criterion AO matrix elements:     0.1000000000E-97
 Cut-offs for Coulomb potential and fitted density:0.1000000000E-97
 Cut-off criterion for Coulomb multipole terms:    0.1000000000E-97
 Progressive Convergence parameter:                 0.000000000    
1
 ***************************************************************************************************



                                            ***************************
                                            *  C O M P U T A T I O N  *
                                            ***************************
  

 Number of elements of the density matrix on this node (used, total):        15        15



 ===========================================
 Numerical Integration : Fuzzy Cells (Becke)
 ===========================================
  
 Becke grid quality: VERYGOOD       
  
 Lebedev angular grid order:             min:  13 max:  41
 Nr. of radial points:                   min:  64 max:  64

 Total nr. of points:         64
 Nr. of blocks:                1
 Block length:                64
 Nr. of dummy points:          0


 Test of Precision of the Numerical Integration Grid
 ===================================================

 Integral of the Total Core Density:                   0.00000000000000



 ========================
 Density Fitting (zlmFit)
 ========================
  
 ZlmFit Fit Quality: VERYGOOD       
  
 Max L-expansion:                        min:   0 max:   0
 Nr. of radial interpolation points:     min: 120 max: 120



 =====
 S C F  ***  ScaSCF  ***
 =====
  

 CYCLE    1
 SCF Error: norm([F,P])=      0.000000000000, max([F,P])=      0.000000000000
 orbitals (Q,E):
 ---------------
 S :1...2            ( 1.00    -0.4983)  ( 0.00     0.1718)
 P :1...1            ( 0.00     0.1562)

 CYCLE    2
 SCF Error: norm([F,P])=      0.033001933656, max([F,P])=      0.033001933656
 orbitals (Q,E):
 ---------------
 S :1...2            ( 1.00    -0.2268)  ( 0.00     0.4005)
 P :1...1            ( 0.00     0.4153)

 CYCLE    3
  SDIIS (wt  0.000):  0.1528  0.8472
 A-DIIS (wt  1.000):  0.0000  1.0000
  DIIS coefficients:  0.0000  1.0000
 SCF Error: norm([F,P])=      0.005954454000, max([F,P])=      0.005954454000
 orbitals (Q,E):
 ---------------
 S :1...2            ( 1.00    -0.2417)  ( 0.00     0.3884)
 P :1...1            ( 0.00     0.4029)

 CYCLE    4
  SDIIS (wt  1.000):  0.1463  0.8537
 A-DIIS (wt  0.000):  0.0000  1.0000
  DIIS coefficients:  0.1463  0.8537
 SCF Error: norm([F,P])=      0.001020399433, max([F,P])=      0.001020399433
 orbitals (Q,E):
 ---------------
 S :1...2            ( 1.00    -0.2394)  ( 0.00     0.3902)
 P :1...1            ( 0.00     0.4048)

 CYCLE    5
  SDIIS (wt  1.000):  0.0014  0.9986
  DIIS coefficients:  0.0014  0.9986
 SCF Error: norm([F,P])=      0.000001436995, max([F,P])=      0.000001436995
 orbitals (Q,E):
 ---------------
 S :1...2            ( 1.00    -0.2394)  ( 0.00     0.3902)
 P :1...1            ( 0.00     0.4048)

 CYCLE    6
  SDIIS (wt  1.000): -0.0002  1.0002
  DIIS coefficients: -0.0002  1.0002
 SCF Error: norm([F,P])=      0.000000000334, max([F,P])=      0.000000000334
 orbitals (Q,E):
 ---------------
 S :1...2            ( 1.00    -0.2394)  ( 0.00     0.3902)
 P :1...1            ( 0.00     0.4048)

 SCF CONVERGED

 CYCLE    7
1
 ***************************************************************************************************



                                                *******************
                                                *  R E S U L T S  *
                                                *******************
  
 *** Using FIT density in Focky
  SDIIS (wt  1.000):  0.0000  1.0000
  DIIS coefficients:  0.0000  1.0000
 SCF Error: norm([F,P])=      0.000000000000, max([F,P])=      0.000000000000

 Scaled ZORA Orbital Energies, per Irrep and Spin:
 =================================================
                        Occup              E (au)              E (eV)       Diff (eV) with prev. cycle
                        -----      --------------------        ------       --------------------------
 S
               1        1.000     -0.23939248892723E+00        -6.514               7.55E-15
               2        0.000      0.39021645958605E+00        10.618
 P
               1        0.000      0.40480887453077E+00        11.015


 Partially Occupied:
               1 S                -0.23939248892723E+00
  
 LUMO :        2 S                 0.39021645958605E+00
  


 Orbital Energies, all Irreps
 ========================================

 Irrep        no.  (spin)   Occup              E (au)                E (eV)
 ---------------------------------------------------------------------------
 S             1             1.00       -0.23939248892723E+00        -6.5142
 S             2             0.00        0.39021645958605E+00        10.6183
 P             1             0.00        0.40480887453077E+00        11.0154


 All Electron Calculation, thus no Orbital Energies of the Core Orbitals are calculated



 =======================================
 M U L L I K E N   P O P U L A T I O N S
 =======================================
  
 The survey below gives for each atom:
 a) the total charge (Z minus electrons)
 b) the net spin polarization (nr of electrons spin-A minus spin-B)
 c) for each spin the atomic electron valence density (integrated) per L-value.

 Atom              Charge    Spin density          S         P         D         F
 ----              ------    ------------       ------    ------    ------    ------
 1 H               0.0000                       1.0000    0.0000    0.0000    0.0000

 Populations of individual BAS functions
 ----------------------------------------
 1 H            0.6465  0.3535  0.0000  0.0000  0.0000

 Gross Charges per Atom (Z minus electrons)
 ==========================================
             0.0000
 Net Total:  0.00000000



 =======================================================================
 Electrostatic potential at the Nuclei due to electrons and other nuclei
 =======================================================================
  
         Atom                  Potential
         ----                  ---------
     1)   H                   0.94379605
 
 
 ========================
 No memory problems found
 ========================
 
 Maximum number of active allocate calls:         306
 
 *******************************************************************************

                             A D F   E X I T
 NORMAL TERMINATION



 =================
 Timing Statistics
 =================
  
 Total Used :                     CPU=        0.39      System=        0.09     Elapsed=        0.69

 Calls  Section                     ( Mean, Percentage )
 ---------------------------------------------------------------------------------------------------
     3  ><      ................      0.00    0.00             0.01   16.67             0.00    1.90
     1  INIT    ................      0.11   28.00             0.00    0.00             0.15   22.04
     1  GEOMET  ................      0.03    8.00             0.00    0.00             0.04    5.84
     1  INPUTA  ................      0.02    4.00             0.00    0.00             0.01    0.73
     1  MAINSY  ................      0.00    0.00             0.02   16.67             0.06    8.18
     1  SYMFIT  ................      0.00    0.00             0.00    0.00             0.00    0.15
     1  CORORT  ................      0.00    0.00             0.00    0.00             0.01    0.88
     1  SYMORB  ................      0.00    0.00             0.00    0.00             0.00    0.73
     1  CLSMAT  ................      0.00    0.00             0.00    0.00             0.01    1.75
     1  ORTHON  ................      0.00    0.00             0.00    0.00             0.01    1.61
     1  GENPT   ................      0.00    0.00             0.00    0.00             0.02    3.50
     1  PTBAS   ................      0.00    0.00             0.00    0.00             0.01    1.90
     7  FOCKY   ................      0.03   52.00             0.00   33.33             0.03   31.53
     7  FOCKTR  ................      0.00    0.00             0.00    0.00             0.00    1.02
     7  SDIIS   ................      0.00    0.00             0.00   16.67             0.01    9.34
     1  COREPS  ................      0.02    4.00             0.00    0.00             0.02    2.92
     1  POPAN   ................      0.02    4.00             0.00    0.00             0.01    1.61
     1  DEBYE   ................      0.00    0.00             0.02   16.67             0.01    1.02
     1  EXIT PROCEDURE .........      0.00    0.00             0.00    0.00             0.02    3.36


 Currently Open Files (EXIT00)
 ====================

 Unit    Access Format  Status   Type       Ident (file)
 -------------------------------------------------------
   3      SEQ    FORM   TRANSP  NORMAL      LOGFILE
                                          ( logfile )

 ***************************************************************************************************
 (LOGFILE)
 <Apr01-2020> <20:41:54>  DIRAC 2019.303  RunTime: Apr01-2020 20:41:54  Nodes: 1  Procs: 1
 <Apr01-2020> <20:41:54>  NORMAL TERMINATION
 <Apr01-2020> <20:41:54>  END
 <Apr01-2020> <20:41:55>  ADF 2019.303  RunTime: Apr01-2020 20:41:55  Nodes: 1  Procs: 1
 <Apr01-2020> <20:41:55>  Hydrogen (DZP)
 <Apr01-2020> <20:41:55>  RunType   : CREATE
 <Apr01-2020> <20:41:55>  Net Charge: 0 (Nuclei minus Electrons)
 <Apr01-2020> <20:41:55>  Symmetry  : ATOM
  Coordinates
    Atom         X           Y           Z   (Angstrom)
    1.H         0.000000    0.000000    0.000000
 <Apr01-2020> <20:41:55>  >>>> CORORT
 <Apr01-2020> <20:41:55>  >>>> CLSMAT
 <Apr01-2020> <20:41:55>  >>>> ORTHON
 <Apr01-2020> <20:41:55>  >>>> GENPT
 <Apr01-2020> <20:41:55>  Block Length=  64
 <Apr01-2020> <20:41:55>  >>>> PTBAS
 <Apr01-2020> <20:41:55>  >>>> CYCLE
 <Apr01-2020> <20:41:56>              |Error|         MaxErr       Wt(A-DIIS)
 <Apr01-2020> <20:41:56>      1      0.00000000      0.00000000
 <Apr01-2020> <20:41:56>      2      0.03300193      0.03300193
 <Apr01-2020> <20:41:56>      3      0.00595445      0.00595445    100.0
 <Apr01-2020> <20:41:56>      4      0.00102040      0.00102040      0.0
 <Apr01-2020> <20:41:56>      5      0.00000144      0.00000144      0.0
 <Apr01-2020> <20:41:56>      6      0.00000000      0.00000000      0.0
 <Apr01-2020> <20:41:56>  SCF converged
 <Apr01-2020> <20:41:56>      7      0.00000000      0.00000000      0.0
 <Apr01-2020> <20:41:56>  >>>> POPAN
 <Apr01-2020> <20:41:56>  >>>> DEBYE
 <Apr01-2020> <20:41:56>  NORMAL TERMINATION
 <Apr01-2020> <20:41:56>  END

 *******************************************************************************
 *                                                                             *
 *  --------------------------------                                           *
 *   Amsterdam Modeling Suite (AMS)              2019.303                      *
 *  --------------------------------                                           *
 *                                               r81909 2020-02-21             *
 *                                                                             *
 *                                                                             *
 *                            =====================                            *
 *                            |                   |                            *
 *                            |     D I R A C     |                            *
 *                            |                   |                            *
 *                            =====================                            *
 *                                                                             *
 *                                                                             *
 *   Online information and documentation:  https://www.scm.com/support/       *
 *   E-mail:  support@scm.com   info@scm.com                                   *
 *                                                                             *
 *   Scientific publications using AMS results must be properly referenced     *
 *   See the User Manuals (or the web site) for recommended citations          *
 *   The terms and conditions of the End User License Agreement apply to       *
 *   the use of AMS, https://www.scm.com/license-terms/                        *
 *                                                                             *
 *********************  x86_64_windows_intel / intelmpi  ***********************
 
 Licensed to: Student project account / Theoretische chemie, Vrije Universiteit / Amsterdam / NETHERLANDS
 SCM User ID: u20153
  
 DIRAC 2019.303  RunTime: Apr01-2020 20:41:56  Nodes: 1  Procs: 1

 Temporary files are created in D:\SCMTMP\/kid_0.2010675968
1
 NITROGEN ATOM all electron RELATIVISTIC, Point Nuc, A and c 
 N J RN H ZN XION ANUC CLIGHT
 5000    4100.00000000197.36710137  7.00000000  0.00000000   14.003074  0.1370360E+03
  PH   PHI     EPS        DEL        DELRVR
  0.30  0.30     2500.00  0.00001000  0.00001000
 IDIRC  NC1  NDEBU NPRIN  IPUN IRCOR IWCOR
   1   300     0     0     0     0     0
   XALPHA      XLATTER      RNUC
  0.70000000  0.00000000  0.00000000 Point Charge
   XN   XL   XJ      XE          XZ      XDELL
  1.0  0.0  0.5      -5.000       2.000     0.00000
  2.0  0.0  0.5      -1.000       2.000     0.00000
  2.0  1.0  0.5      -1.000       2.000     0.00000
  2.0  1.0  1.5      -1.000       1.000     0.00000
 ICORP=  0  NPCL=  0  DEMP=0.00  PEPS=0.000000
 R(1)=  0.1000000E-08 D=  0.1005080E+01 RNUC=  0.0000000E+00
 converged at cycle   25  DENSITY AVERAGING    0.3000
  MAXIMUM ERROR IN R.V(R) IS   0.97905511E-05
 Q,EY,EV,EZ,ESUM,ETOT,RHO  0.700000E+01 -0.796419E+01 -0.840156E+02 -0.127663E+03 -0.300692E+02 -0.538837E+02  0.270066E-14


 DIRAC CALCULATION
1                    NITROGEN ATOM all electron RELATIVISTIC, Point Nuc, A and c from libtc


 EXCHANGE COEFFICIENT=  0.7000000           TAIL CORRECTION=  0.           NUCLEAR RADIUS=  0.000E+00
0                       ORBITAL    N    L    J     ELECTRONS     EIGENVALUE                DELTA OF EIGENV.

                          1S1/2  1.0  0.0  0.5     2.000       -0.1403720E+02                 0.4993583E-04
                          2S1/2  2.0  0.0  0.5     2.000       -0.6456810E+00                 0.6544571E-05
                          2P1/2  2.0  1.0  0.5     2.000       -0.2347008E+00                 0.5687228E-05
                          2P3/2  2.0  1.0  1.5     1.000       -0.2339893E+00                 0.5679256E-05


                                        NUCLEAR CHARGE=    7.000000
                            INTEGRAL OF CHARGE DENSITY=    7.000000
                           SUM OF THE ORBITAL ENERGIES=    -30.0692
                                          TOTAL ENERGY=    -53.8837
                                        KINETIC ENERGY=     53.9465
                             NUCLEAR ATTRACTION ENERGY=   -127.6627
                             ELECTRON REPULSION ENERGY=     25.8056
                                       EXCHANGE ENERGY=     -5.9731

 *******************************************************************************

                             D I R A C   E X I T
 NORMAL TERMINATION



 =================
 Timing Statistics
 =================
  
 Total Used :                     CPU=        0.11      System=        0.02     Elapsed=        0.15

 Calls  Section                     ( Mean, Percentage )
 ---------------------------------------------------------------------------------------------------
     2  ><      ................      0.00    0.00             0.00    0.00             0.00    0.00
     1  EXIT PROCEDURE .........      0.11  100.00             0.02  100.00             0.15  100.00


 Currently Open Files (EXIT00)
 ====================

 Unit    Access Format  Status   Type       Ident (file)
 -------------------------------------------------------
   3      SEQ    FORM   TRANSP  NORMAL      LOGFILE
                                          ( logfile )
 
Create N   file=DZP-N
XC
  GGA PBE
End
relativistic ZORA
Corepotentials t12.rel
End

 *******************************************************************************
 *                                                                             *
 *  --------------------------------                                           *
 *   Amsterdam Modeling Suite (AMS)              2019.303                      *
 *  --------------------------------                                           *
 *                                               r81909 2020-02-21             *
 *                                                                             *
 *                                                                             *
 *                              =================                              *
 *                              |               |                              *
 *                              |     A D F     |                              *
 *                              |               |                              *
 *                              =================                              *
 *                                                                             *
 *                                                                             *
 *   Online information and documentation:  https://www.scm.com/support/       *
 *   E-mail:  support@scm.com   info@scm.com                                   *
 *                                                                             *
 *   Scientific publications using AMS results must be properly referenced     *
 *   See the User Manuals (or the web site) for recommended citations          *
 *   The terms and conditions of the End User License Agreement apply to       *
 *   the use of AMS, https://www.scm.com/license-terms/                        *
 *                                                                             *
 *********************  x86_64_windows_intel / intelmpi  ***********************
 
 Licensed to: Student project account / Theoretische chemie, Vrije Universiteit / Amsterdam / NETHERLANDS
 SCM User ID: u20153
  
 ADF 2019.303  RunTime: Apr01-2020 20:41:56  Nodes: 1  Procs: 1

 Temporary files are created in D:\SCMTMP\/kid_0.1580912445
 Nitrogen (DZP)



 ===========================
 A T T A C H E D   F I L E S
 ===========================
  
 CREATE - Data File:    DZP-N
                        Nitrogen (DZP)
 Core Potentials:
         file : t12.rel



 ===============================
 M O D E L   P A R A M E T E R S
 ===============================
  
 DENSITY FUNCTIONAL POTENTIAL (scf)
    LDA:                               PW92                                    == Not Default ==
    Gradient Corrections:              PBEc PBEx                               == Not Default ==

 SPIN  (restricted / unrestr.)
    Molecule:                          Restricted                               

 OTHER ASPECTS
    Relativistic Corrections:          scalar (ZORA,MAPA)                      == Not Default ==

    Nuclear Charge Density Model:      Point Charge Nuclei                      
    Core Treatment:                    Frozen Orbital(s)                        

    Hyperfine or Zeeman Interaction:   ---                                      



 =====================================
 S Y M M E T R Y ,   E L E C T R O N S
 =====================================
  
 Symmetry: ATOM

 Irreducible Representations, including subspecies
 -------------------------------------------------
 S
 P:x  P:y  P:z
 D:z2  D:x2-y2  D:xy  D:xz  D:yz
 F:z3  F:z  F:xyz  F:z2x  F:z2y  F:x  F:y


 Configuration of Valence Electrons
 ==================================

          Occupation Numbers
          -------------------------------------------------
 S        2*2
 P        3
 D        0
 F        0
          -------------------------------------------------

 Total:   7

 Net Charge: 0 (Nuclei minus Electrons)

 Preset values for MO occupations will be applied through SCF cycle no. 1000000
 Thereafter, the program will assign electrons to MOs that are spatially
 similar to the occupied MOs in a "reference" cycle ("KeepOrbitals").
 The reference cycle is always the PREVIOUS cycle: it will evolve with
 the SCF procedure.



 ================================
 (Slater-type)  F U N C T I O N S  ***  (Basis and Fit)  ***
 ================================
  

 Atom Type    1  (N)
 ==============

 Valence Basis Sets:   7
 -----------------------
   1 S    8.740000
   1 S    5.900000
   2 S    1.460000
   2 S    2.380000
   2 P    2.580000
   2 P    1.120000
   3 D    2.200000


 BAS: List of all Elementary Cartesian Basis Functions
 =====================================================

 The numbering in the list below (to the right of the function characteristics) is referred
 to in print-outs of MO eigenvectors and Mulliken populations in the BAS representation
 (as contrasted to the SFO representation).

 Notes:
 1. The functions are characterized by a polynomial prefactor (powers of x,y,z and r) and
    an exponential decay factor alpha.
 2. Since the basis sets are specific for an atom TYPE, the individual functions occur on
    all atoms of that type.
 3. The word 'Core' in the left margin signals that it is a Core Function (CF) : not a
    degree of freedom in the valence set, but only used to ensure orthogonalization of
    the other valence basis functions on the frozen Core Orbitals.


 (power of) X  Y  Z  R     Alpha  on Atom
            ==========     =====     ==========

 N                                    1
                                  ---------------------------------------------------------------------------
            0  0  0  0     8.740      1
            0  0  0  0     5.900      2
            0  0  0  1     1.460      3
            0  0  0  1     2.380      4
            1  0  0  0     2.580      5
            0  1  0  0     2.580      6
            0  0  1  0     2.580      7
            1  0  0  0     1.120      8
            0  1  0  0     1.120      9
            0  0  1  0     1.120     10
            2  0  0  0     2.200     11
            1  1  0  0     2.200     12
            1  0  1  0     2.200     13
            0  2  0  0     2.200     14
            0  1  1  0     2.200     15
            0  0  2  0     2.200     16

 Total number of charge fitting functions (nprimf)        84
 Total number of Cartesian basis functions (naos)         16
 Total number of Cartesian core functions  (ncos)          0



 BAS: List of all Elementary Cartesian Basis Functions
 =====================================================

 The numbering in the list below (to the right of the function characteristics) is referred
 to in print-outs of MO eigenvectors and Mulliken populations in the BAS representation
 (as contrasted to the SFO representation).

 Notes:
 1. The functions are characterized by a polynomial prefactor (powers of x,y,z and r) and
    an exponential decay factor alpha.
 2. Since the basis sets are specific for an atom TYPE, the individual functions occur on
    all atoms of that type.
 3. The word 'Core' in the left margin signals that it is a Core Function (CF) : not a
    degree of freedom in the valence set, but only used to ensure orthogonalization of
    the other valence basis functions on the frozen Core Orbitals.


 (power of) X  Y  Z  R     Alpha  on Atom
            ==========     =====     ==========

 N                                    1
                                  ---------------------------------------------------------------------------
            0  0  0  0     8.740      1
            0  0  0  0     5.900      2
            0  0  0  1     1.460      3
            0  0  0  1     2.380      4
            1  0  0  0     2.580      5
            0  1  0  0     2.580      6
            0  0  1  0     2.580      7
            1  0  0  0     1.120      8
            0  1  0  0     1.120      9
            0  0  1  0     1.120     10
            2  0  0  0     2.200     11
            1  1  0  0     2.200     12
            1  0  1  0     2.200     13
            0  2  0  0     2.200     14
            0  1  1  0     2.200     15
            0  0  2  0     2.200     16
1
 ***************************************************************************************************



                                              ***********************
                                              *  T E C H N I C A L  *
                                              ***********************
  



 =============================================================
 P A R A L L E L I Z A T I O N  and  V E C T O R I Z A T I O N
 =============================================================
  
 Nr of parallel processes:                                1
 Maximum vector length in NumInt loops:                 128



 =====================
 S C F   U P D A T E S
 =====================
  
 Max. nr. of cycles:                               300
 Convergence criterion:                              0.0000000100
   secondary criterion:                              0.0000000100

 Mix parameter (when DIIS does not apply):           0.2000000000
 Special mix parameter for the first cycle:          1.0000000000
 Mixed ADIIS+SDIIS will be used                  
    Max number of expansion vectors:                10
    Pure ADIIS when Max([F,P]) is above              0.1000000000
    Pure SDIIS when Max([F,P]) is below              0.0010000000
 Automatic ElectronSmearing (in case of problematic SCF convergence) disabled



 =================
 P R E C I S I O N  ***  (General: NumInt, NeglectFunctionTails, ...)  ***
 =================
  

 NumInt:           Target precision:                12.0000000000
 -------           Initial precision:               10.0000000000
                   Min. precision (optimization):   10.0000000000

 Neglect Functions:          Basis functions:        0.1000000000E-13
 ------------------          Fit functions:          0.1000000000E-13



 ===========================
 L I N E A R   S C A L I N G
 ===========================
  

 Cut-off radii density fit:                        0.1000000000E-97
 Overlap cut-off criterion AO matrix elements:     0.1000000000E-97
 Cut-offs for Coulomb potential and fitted density:0.1000000000E-97
 Cut-off criterion for Coulomb multipole terms:    0.1000000000E-97
 Progressive Convergence parameter:                 0.000000000    
1
 ***************************************************************************************************



                                            ***************************
                                            *  C O M P U T A T I O N  *
                                            ***************************
  

 Number of elements of the density matrix on this node (used, total):       136       136



 ===========================================
 Numerical Integration : Fuzzy Cells (Becke)
 ===========================================
  
 Becke grid quality: VERYGOOD       
  
 Lebedev angular grid order:             min:  13 max:  41
 Nr. of radial points:                   min:  72 max:  72

 Total nr. of points:         72
 Nr. of blocks:                1
 Block length:                72
 Nr. of dummy points:          0


 Test of Precision of the Numerical Integration Grid
 ===================================================

 Integral of the Total Core Density:                   0.00000000000000



 ========================
 Density Fitting (zlmFit)
 ========================
  
 ZlmFit Fit Quality: VERYGOOD       
  
 Max L-expansion:                        min:   0 max:   0
 Nr. of radial interpolation points:     min: 160 max: 160



 =====
 S C F  ***  ScaSCF  ***
 =====
  

 CYCLE    1
 SCF Error: norm([F,P])=      0.000000000000, max([F,P])=      0.000000000000
 orbitals (Q,E):
 ---------------
 S :1...4            ( 2.00   -24.4960)  ( 2.00    -5.9918)  ( 0.00    -2.6086)  ( 0.00    19.6812)
 P :1...2            ( 3.00    -5.8044)  ( 0.00    -2.3898)
 D :1...1            ( 0.00    -2.7133)

 CYCLE    2
 SCF Error: norm([F,P])=      4.718076799890, max([F,P])=      3.575461190169
 orbitals (Q,E):
 ---------------
 S :1...3            ( 2.00   -12.0835)  ( 2.00    -0.1315)  ( 0.00     1.1656)
 P :1...2            ( 3.00     0.1954)  ( 0.00     1.3141)
 D :1...1            ( 0.00     1.7013)

 CYCLE    3
  SDIIS (wt  0.000):  0.2292  0.7708
 A-DIIS (wt  1.000):  0.2257  0.7743
  DIIS coefficients:  0.2257  0.7743
 SCF Error: norm([F,P])=      1.732126731486, max([F,P])=      1.376801059230
 orbitals (Q,E):
 ---------------
 S :1...3            ( 2.00   -14.7868)  ( 2.00    -0.9735)  ( 0.00     0.4203)
 P :1...2            ( 3.00    -0.5443)  ( 0.00     0.3959)
 D :1...1            ( 0.00     1.0221)

 CYCLE    4
  SDIIS (wt  0.000):  0.2625  0.7375
 A-DIIS (wt  1.000):  0.0374  0.9626
  DIIS coefficients:  0.0374  0.9626
 SCF Error: norm([F,P])=      0.635583350188, max([F,P])=      0.428482394394
 orbitals (Q,E):
 ---------------
 S :1...3            ( 2.00   -13.6651)  ( 2.00    -0.5145)  ( 0.00     0.7295)
 P :1...2            ( 3.00    -0.1047)  ( 0.00     0.7532)
 D :1...1            ( 0.00     1.3724)

 CYCLE    5
  SDIIS (wt  0.000): -0.0579  0.4000  0.6579
 A-DIIS (wt  1.000):  0.0000  0.3866  0.6134
  DIIS coefficients:  0.0000  0.3866  0.6134
 SCF Error: norm([F,P])=      0.532217646411, max([F,P])=      0.376684152835
 orbitals (Q,E):
 ---------------
 S :1...3            ( 2.00   -14.2179)  ( 2.00    -0.7154)  ( 0.00     0.5778)
 P :1...2            ( 3.00    -0.2872)  ( 0.00     0.5683)
 D :1...1            ( 0.00     1.2175)

 CYCLE    6
  SDIIS (wt  0.547): -0.0010 -0.0404  0.0767  0.9647
 A-DIIS (wt  0.453):  0.0000  0.0000  0.0000  1.0000
  DIIS coefficients: -0.0005 -0.0221  0.0420  0.9807
 SCF Error: norm([F,P])=      0.067155020791, max([F,P])=      0.045835320661
 orbitals (Q,E):
 ---------------
 S :1...3            ( 2.00   -14.1282)  ( 2.00    -0.6789)  ( 0.00     0.6033)
 P :1...2            ( 3.00    -0.2527)  ( 0.00     0.5977)
 D :1...1            ( 0.00     1.2457)

 CYCLE    7
  SDIIS (wt  0.811): -0.0010  0.0016  0.0049  0.2945  0.7001
 A-DIIS (wt  0.189):  0.0000  0.0000  0.0000  0.0740  0.9260
  DIIS coefficients: -0.0008  0.0013  0.0040  0.2528  0.7428
 SCF Error: norm([F,P])=      0.028462911560, max([F,P])=      0.019716358206
 orbitals (Q,E):
 ---------------
 S :1...3            ( 2.00   -14.1578)  ( 2.00    -0.6901)  ( 0.00     0.5954)
 P :1...2            ( 3.00    -0.2631)  ( 0.00     0.5884)
 D :1...1            ( 0.00     1.2374)

 CYCLE    8
  SDIIS (wt  0.985):  0.0002 -0.0003 -0.0014 -0.0594  1.0609
 A-DIIS (wt  0.015):  0.0000  0.0000  0.0000  0.0000  1.0000
  DIIS coefficients:  0.0002 -0.0003 -0.0014 -0.0586  1.0600
 SCF Error: norm([F,P])=      0.003576585702, max([F,P])=      0.002474836717
 orbitals (Q,E):
 ---------------
 S :1...3            ( 2.00   -14.1545)  ( 2.00    -0.6888)  ( 0.00     0.5963)
 P :1...2            ( 3.00    -0.2619)  ( 0.00     0.5894)
 D :1...1            ( 0.00     1.2383)

 CYCLE    9
  SDIIS (wt  1.000):  0.0000  0.0000 -0.0001  0.0000  0.0211  0.1560  0.8230
  DIIS coefficients:  0.0000  0.0000 -0.0001  0.0000  0.0211  0.1560  0.8230
 SCF Error: norm([F,P])=      0.000011723798, max([F,P])=      0.000007985879
 orbitals (Q,E):
 ---------------
 S :1...3            ( 2.00   -14.1545)  ( 2.00    -0.6888)  ( 0.00     0.5963)
 P :1...2            ( 3.00    -0.2619)  ( 0.00     0.5894)
 D :1...1            ( 0.00     1.2383)

 CYCLE   10
  SDIIS (wt  1.000):  0.0000 -0.0003 -0.0027 -0.0042  1.0072
  DIIS coefficients:  0.0000 -0.0003 -0.0027 -0.0042  1.0072
 SCF Error: norm([F,P])=      0.000000055897, max([F,P])=      0.000000040360
 orbitals (Q,E):
 ---------------
 S :1...3            ( 2.00   -14.1545)  ( 2.00    -0.6888)  ( 0.00     0.5963)
 P :1...2            ( 3.00    -0.2619)  ( 0.00     0.5894)
 D :1...1            ( 0.00     1.2383)

 CYCLE   11
  SDIIS (wt  1.000):  0.0000 -0.0192  1.0192
  DIIS coefficients:  0.0000 -0.0192  1.0192
 SCF Error: norm([F,P])=      0.000000001301, max([F,P])=      0.000000000848
 orbitals (Q,E):
 ---------------
 S :1...3            ( 2.00   -14.1545)  ( 2.00    -0.6888)  ( 0.00     0.5963)
 P :1...2            ( 3.00    -0.2619)  ( 0.00     0.5894)
 D :1...1            ( 0.00     1.2383)

 SCF CONVERGED

 CYCLE   12
1
 ***************************************************************************************************



                                                *******************
                                                *  R E S U L T S  *
                                                *******************
  
 *** Using FIT density in Focky
  SDIIS (wt  1.000):  0.0000 -0.0001  0.0051  0.9950
  DIIS coefficients:  0.0000 -0.0001  0.0051  0.9950
 SCF Error: norm([F,P])=      0.000000000002, max([F,P])=      0.000000000002

 Scaled ZORA Orbital Energies, per Irrep and Spin:
 =================================================
                        Occup              E (au)              E (eV)       Diff (eV) with prev. cycle
                        -----      --------------------        ------       --------------------------
 S
               1        2.000     -0.14154489824002E+02      -385.163              -5.51E-11
               2        2.000     -0.68880630668577E+00       -18.743              -2.13E-11
               3        0.000      0.59627237039470E+00        16.225
               4        0.000      0.28719733415597E+02       781.504
 P
               1        3.000     -0.26193884583507E+00        -7.128              -1.98E-11
               2        0.000      0.58941699261679E+00        16.039
 D
               1        0.000      0.12383353460103E+01        33.697


 Partially Occupied:
               1 P                -0.26193884583507E+00
  
 HOMO :        2 S                -0.68880630668577E+00
 LUMO :        2 P                 0.58941699261679E+00
  


 Orbital Energies, all Irreps
 ========================================

 Irrep        no.  (spin)   Occup              E (au)                E (eV)
 ---------------------------------------------------------------------------
 S             1             2.00       -0.14154489824002E+02      -385.1633
 S             2             2.00       -0.68880630668577E+00       -18.7434
 P             1             3.00       -0.26193884583507E+00        -7.1277
 P             2             0.00        0.58941699261679E+00        16.0389
 S             3             0.00        0.59627237039470E+00        16.2254
 D             1             0.00        0.12383353460103E+01        33.6968
 S             4             0.00        0.28719733415597E+02       781.5037


 All Electron Calculation, thus no Orbital Energies of the Core Orbitals are calculated



 =======================================
 M U L L I K E N   P O P U L A T I O N S
 =======================================
  
 The survey below gives for each atom:
 a) the total charge (Z minus electrons)
 b) the net spin polarization (nr of electrons spin-A minus spin-B)
 c) for each spin the atomic electron valence density (integrated) per L-value.

 Atom              Charge    Spin density          S         P         D         F
 ----              ------    ------------       ------    ------    ------    ------
 1 N               0.0000                       4.0000    3.0000    0.0000    0.0000

 Populations of individual BAS functions
 ----------------------------------------
 1 N            0.5240  1.4552  0.7815  1.2392  0.5021  0.5021  0.5021  0.4979  0.4979  0.4979
                0.0000  0.0000  0.0000  0.0000  0.0000  0.0000

 Gross Charges per Atom (Z minus electrons)
 ==========================================
             0.0000
 Net Total:  0.00000000



 =======================================================================
 Electrostatic potential at the Nuclei due to electrons and other nuclei
 =======================================================================
  
         Atom                  Potential
         ----                  ---------
     1)   N                  18.28339303
 
 
 ========================
 No memory problems found
 ========================
 
 Maximum number of active allocate calls:         376
 
 *******************************************************************************

                             A D F   E X I T
 NORMAL TERMINATION



 =================
 Timing Statistics
 =================
  
 Total Used :                     CPU=        0.66      System=        0.12     Elapsed=        0.89

 Calls  Section                     ( Mean, Percentage )
 ---------------------------------------------------------------------------------------------------
     3  ><      ................      0.00    0.00             0.01   12.50             0.01    1.81
     1  INIT    ................      0.11   16.67             0.00    0.00             0.11   12.09
     1  GEOMET  ................      0.02    2.38             0.00    0.00             0.05    5.76
     1  INPUTA  ................      0.00    0.00             0.02   12.50             0.00    0.56
     1  MAINSY  ................      0.00    0.00             0.02   12.50             0.03    3.50
     1  SYMFIT  ................      0.00    0.00             0.00    0.00             0.00    0.11
     1  CORORT  ................      0.00    0.00             0.00    0.00             0.01    0.68
     1  SYMORB  ................      0.00    0.00             0.00    0.00             0.00    0.23
     1  CLSMAT  ................      0.02    2.38             0.00    0.00             0.01    1.47
     1  ORTHON  ................      0.00    0.00             0.00    0.00             0.01    1.36
     1  GENPT   ................      0.03    4.76             0.00    0.00             0.03    3.05
     1  PTBAS   ................      0.00    0.00             0.02   12.50             0.02    1.81
    12  FOCKY   ................      0.03   57.14             0.00   25.00             0.03   46.21
    12  FOCKTR  ................      0.00    4.76             0.00    0.00             0.00    1.36
    12  SDIIS   ................      0.00    4.76             0.00   12.50             0.01   12.09
     1  COREPS  ................      0.03    4.76             0.00    0.00             0.03    2.94
     1  POPAN   ................      0.00    0.00             0.02   12.50             0.01    1.47
     1  DEBYE   ................      0.00    0.00             0.00    0.00             0.01    0.79
     1  EXIT PROCEDURE .........      0.02    2.38             0.00    0.00             0.02    2.71


 Currently Open Files (EXIT00)
 ====================

 Unit    Access Format  Status   Type       Ident (file)
 -------------------------------------------------------
   3      SEQ    FORM   TRANSP  NORMAL      LOGFILE
                                          ( logfile )

 ***************************************************************************************************
 (LOGFILE)
 <Apr01-2020> <20:41:54>  DIRAC 2019.303  RunTime: Apr01-2020 20:41:54  Nodes: 1  Procs: 1
 <Apr01-2020> <20:41:54>  NORMAL TERMINATION
 <Apr01-2020> <20:41:54>  END
 <Apr01-2020> <20:41:55>  ADF 2019.303  RunTime: Apr01-2020 20:41:55  Nodes: 1  Procs: 1
 <Apr01-2020> <20:41:55>  Hydrogen (DZP)
 <Apr01-2020> <20:41:55>  RunType   : CREATE
 <Apr01-2020> <20:41:55>  Net Charge: 0 (Nuclei minus Electrons)
 <Apr01-2020> <20:41:55>  Symmetry  : ATOM
  Coordinates
    Atom         X           Y           Z   (Angstrom)
    1.H         0.000000    0.000000    0.000000
 <Apr01-2020> <20:41:55>  >>>> CORORT
 <Apr01-2020> <20:41:55>  >>>> CLSMAT
 <Apr01-2020> <20:41:55>  >>>> ORTHON
 <Apr01-2020> <20:41:55>  >>>> GENPT
 <Apr01-2020> <20:41:55>  Block Length=  64
 <Apr01-2020> <20:41:55>  >>>> PTBAS
 <Apr01-2020> <20:41:55>  >>>> CYCLE
 <Apr01-2020> <20:41:56>              |Error|         MaxErr       Wt(A-DIIS)
 <Apr01-2020> <20:41:56>      1      0.00000000      0.00000000
 <Apr01-2020> <20:41:56>      2      0.03300193      0.03300193
 <Apr01-2020> <20:41:56>      3      0.00595445      0.00595445    100.0
 <Apr01-2020> <20:41:56>      4      0.00102040      0.00102040      0.0
 <Apr01-2020> <20:41:56>      5      0.00000144      0.00000144      0.0
 <Apr01-2020> <20:41:56>      6      0.00000000      0.00000000      0.0
 <Apr01-2020> <20:41:56>  SCF converged
 <Apr01-2020> <20:41:56>      7      0.00000000      0.00000000      0.0
 <Apr01-2020> <20:41:56>  >>>> POPAN
 <Apr01-2020> <20:41:56>  >>>> DEBYE
 <Apr01-2020> <20:41:56>  NORMAL TERMINATION
 <Apr01-2020> <20:41:56>  END
 <Apr01-2020> <20:41:56>  DIRAC 2019.303  RunTime: Apr01-2020 20:41:56  Nodes: 1  Procs: 1
 <Apr01-2020> <20:41:56>  NORMAL TERMINATION
 <Apr01-2020> <20:41:56>  END
 <Apr01-2020> <20:41:56>  ADF 2019.303  RunTime: Apr01-2020 20:41:56  Nodes: 1  Procs: 1
 <Apr01-2020> <20:41:56>  Nitrogen (DZP)
 <Apr01-2020> <20:41:56>  RunType   : CREATE
 <Apr01-2020> <20:41:56>  Net Charge: 0 (Nuclei minus Electrons)
 <Apr01-2020> <20:41:57>  Symmetry  : ATOM
  Coordinates
    Atom         X           Y           Z   (Angstrom)
    1.N         0.000000    0.000000    0.000000
 <Apr01-2020> <20:41:57>  >>>> CORORT
 <Apr01-2020> <20:41:57>  >>>> CLSMAT
 <Apr01-2020> <20:41:57>  >>>> ORTHON
 <Apr01-2020> <20:41:57>  >>>> GENPT
 <Apr01-2020> <20:41:57>  Block Length=  72
 <Apr01-2020> <20:41:57>  >>>> PTBAS
 <Apr01-2020> <20:41:57>  >>>> CYCLE
 <Apr01-2020> <20:41:57>              |Error|         MaxErr       Wt(A-DIIS)
 <Apr01-2020> <20:41:57>      1      0.00000000      0.00000000
 <Apr01-2020> <20:41:57>      2      4.71807680      3.57546119
 <Apr01-2020> <20:41:57>      3      1.73212673      1.37680106    100.0
 <Apr01-2020> <20:41:57>      4      0.63558335      0.42848239    100.0
 <Apr01-2020> <20:41:57>      5      0.53221765      0.37668415    100.0
 <Apr01-2020> <20:41:57>      6      0.06715502      0.04583532     45.3
 <Apr01-2020> <20:41:57>      7      0.02846291      0.01971636     18.9
 <Apr01-2020> <20:41:57>      8      0.00357659      0.00247484      1.5
 <Apr01-2020> <20:41:57>      9      0.00001172      0.00000799      0.0
 <Apr01-2020> <20:41:57>     10      0.00000006      0.00000004      0.0
 <Apr01-2020> <20:41:57>     11      0.00000000      0.00000000      0.0
 <Apr01-2020> <20:41:57>  SCF converged
 <Apr01-2020> <20:41:57>     12      0.00000000      0.00000000      0.0
 <Apr01-2020> <20:41:57>  >>>> POPAN
 <Apr01-2020> <20:41:57>  >>>> DEBYE
 <Apr01-2020> <20:41:57>  NORMAL TERMINATION
 <Apr01-2020> <20:41:57>  END

 *******************************************************************************
 *                                                                             *
 *  --------------------------------                                           *
 *   Amsterdam Modeling Suite (AMS)              2019.303                      *
 *  --------------------------------                                           *
 *                                               r81909 2020-02-21             *
 *                                                                             *
 *                                                                             *
 *                            =====================                            *
 *                            |                   |                            *
 *                            |     D I R A C     |                            *
 *                            |                   |                            *
 *                            =====================                            *
 *                                                                             *
 *                                                                             *
 *   Online information and documentation:  https://www.scm.com/support/       *
 *   E-mail:  support@scm.com   info@scm.com                                   *
 *                                                                             *
 *   Scientific publications using AMS results must be properly referenced     *
 *   See the User Manuals (or the web site) for recommended citations          *
 *   The terms and conditions of the End User License Agreement apply to       *
 *   the use of AMS, https://www.scm.com/license-terms/                        *
 *                                                                             *
 *********************  x86_64_windows_intel / intelmpi  ***********************
 
 Licensed to: Student project account / Theoretische chemie, Vrije Universiteit / Amsterdam / NETHERLANDS
 SCM User ID: u20153
  
 DIRAC 2019.303  RunTime: Apr01-2020 20:41:57  Nodes: 1  Procs: 1

 Temporary files are created in D:\SCMTMP\/kid_0.1886505460
1
 CARBON ATOM all electron RELATIVISTIC, Point Nuc, A and c fr
 N J RN H ZN XION ANUC CLIGHT
 5000    4100.00000000197.36710137  6.00000000  0.00000000   12.000000  0.1370360E+03
  PH   PHI     EPS        DEL        DELRVR
  0.30  0.30     2500.00  0.00001000  0.00001000
 IDIRC  NC1  NDEBU NPRIN  IPUN IRCOR IWCOR
   1   300     0     0     0     0     0
   XALPHA      XLATTER      RNUC
  0.70000000  0.00000000  0.00000000 Point Charge
   XN   XL   XJ      XE          XZ      XDELL
  1.0  0.0  0.5      -5.000       2.000     0.00000
  2.0  0.0  0.5      -1.000       2.000     0.00000
  2.0  1.0  0.5      -1.000       2.000     0.00000
  2.0  1.0  1.5      -1.000       0.000     0.00000
 ICORP=  0  NPCL=  0  DEMP=0.00  PEPS=0.000000
 R(1)=  0.1000000E-08 D=  0.1005080E+01 RNUC=  0.0000000E+00
 converged at cycle   26  DENSITY AVERAGING    0.3000
  MAXIMUM ERROR IN R.V(R) IS   0.55010513E-05
 Q,EY,EV,EZ,ESUM,ETOT,RHO  0.600000E+01 -0.610129E+01 -0.585189E+02 -0.876464E+02 -0.211985E+02 -0.372876E+02  0.164808E-14


 DIRAC CALCULATION
1                    CARBON ATOM all electron RELATIVISTIC, Point Nuc, A and c from libtc


 EXCHANGE COEFFICIENT=  0.7000000           TAIL CORRECTION=  0.           NUCLEAR RADIUS=  0.000E+00
0                       ORBITAL    N    L    J     ELECTRONS     EIGENVALUE                DELTA OF EIGENV.

                          1S1/2  1.0  0.0  0.5     2.000       -0.9959611E+01                 0.1355092E-04
                          2S1/2  2.0  0.0  0.5     2.000       -0.4708542E+00                 0.1106918E-05
                          2P1/2  2.0  1.0  0.5     2.000       -0.1687896E+00                 0.8770186E-06
                          2P3/2  2.0  1.0  1.5     0.000       -0.1684646E+00                 0.8770830E-06


                                        NUCLEAR CHARGE=    6.000000
                            INTEGRAL OF CHARGE DENSITY=    6.000000
                           SUM OF THE ORBITAL ENERGIES=    -21.1985
                                          TOTAL ENERGY=    -37.2876
                                        KINETIC ENERGY=     37.3204
                             NUCLEAR ATTRACTION ENERGY=    -87.6464
                             ELECTRON REPULSION ENERGY=     17.6144
                                       EXCHANGE ENERGY=     -4.5760

 *******************************************************************************

                             D I R A C   E X I T
 NORMAL TERMINATION



 =================
 Timing Statistics
 =================
  
 Total Used :                     CPU=        0.14      System=        0.00     Elapsed=        0.17

 Calls  Section                     ( Mean, Percentage )
 ---------------------------------------------------------------------------------------------------
     2  ><      ................      0.00    0.00             0.00    0.00             0.00    0.00
     1  EXIT PROCEDURE .........      0.14  100.00             0.00    0.00             0.17  100.00


 Currently Open Files (EXIT00)
 ====================

 Unit    Access Format  Status   Type       Ident (file)
 -------------------------------------------------------
   3      SEQ    FORM   TRANSP  NORMAL      LOGFILE
                                          ( logfile )
 
Create C   file=DZP-C
XC
  GGA PBE
End
relativistic ZORA
Corepotentials t12.rel
End

 *******************************************************************************
 *                                                                             *
 *  --------------------------------                                           *
 *   Amsterdam Modeling Suite (AMS)              2019.303                      *
 *  --------------------------------                                           *
 *                                               r81909 2020-02-21             *
 *                                                                             *
 *                                                                             *
 *                              =================                              *
 *                              |               |                              *
 *                              |     A D F     |                              *
 *                              |               |                              *
 *                              =================                              *
 *                                                                             *
 *                                                                             *
 *   Online information and documentation:  https://www.scm.com/support/       *
 *   E-mail:  support@scm.com   info@scm.com                                   *
 *                                                                             *
 *   Scientific publications using AMS results must be properly referenced     *
 *   See the User Manuals (or the web site) for recommended citations          *
 *   The terms and conditions of the End User License Agreement apply to       *
 *   the use of AMS, https://www.scm.com/license-terms/                        *
 *                                                                             *
 *********************  x86_64_windows_intel / intelmpi  ***********************
 
 Licensed to: Student project account / Theoretische chemie, Vrije Universiteit / Amsterdam / NETHERLANDS
 SCM User ID: u20153
  
 ADF 2019.303  RunTime: Apr01-2020 20:41:58  Nodes: 1  Procs: 1

 Temporary files are created in D:\SCMTMP\/kid_0.1689100215
 Carbon (DZP)



 ===========================
 A T T A C H E D   F I L E S
 ===========================
  
 CREATE - Data File:    DZP-C
                        Carbon (DZP)
 Core Potentials:
         file : t12.rel



 ===============================
 M O D E L   P A R A M E T E R S
 ===============================
  
 DENSITY FUNCTIONAL POTENTIAL (scf)
    LDA:                               PW92                                    == Not Default ==
    Gradient Corrections:              PBEc PBEx                               == Not Default ==

 SPIN  (restricted / unrestr.)
    Molecule:                          Restricted                               

 OTHER ASPECTS
    Relativistic Corrections:          scalar (ZORA,MAPA)                      == Not Default ==

    Nuclear Charge Density Model:      Point Charge Nuclei                      
    Core Treatment:                    Frozen Orbital(s)                        

    Hyperfine or Zeeman Interaction:   ---                                      



 =====================================
 S Y M M E T R Y ,   E L E C T R O N S
 =====================================
  
 Symmetry: ATOM

 Irreducible Representations, including subspecies
 -------------------------------------------------
 S
 P:x  P:y  P:z
 D:z2  D:x2-y2  D:xy  D:xz  D:yz
 F:z3  F:z  F:xyz  F:z2x  F:z2y  F:x  F:y


 Configuration of Valence Electrons
 ==================================

          Occupation Numbers
          -------------------------------------------------
 S        2*2
 P        2
 D        0
 F        0
          -------------------------------------------------

 Total:   6

 Net Charge: 0 (Nuclei minus Electrons)

 Preset values for MO occupations will be applied through SCF cycle no. 1000000
 Thereafter, the program will assign electrons to MOs that are spatially
 similar to the occupied MOs in a "reference" cycle ("KeepOrbitals").
 The reference cycle is always the PREVIOUS cycle: it will evolve with
 the SCF procedure.



 ================================
 (Slater-type)  F U N C T I O N S  ***  (Basis and Fit)  ***
 ================================
  

 Atom Type    1  (C)
 ==============

 Valence Basis Sets:   7
 -----------------------
   1 S    7.680000
   1 S    5.000000
   2 S    1.980000
   2 S    1.240000
   2 P    2.200000
   2 P    0.960000
   3 D    2.200000


 BAS: List of all Elementary Cartesian Basis Functions
 =====================================================

 The numbering in the list below (to the right of the function characteristics) is referred
 to in print-outs of MO eigenvectors and Mulliken populations in the BAS representation
 (as contrasted to the SFO representation).

 Notes:
 1. The functions are characterized by a polynomial prefactor (powers of x,y,z and r) and
    an exponential decay factor alpha.
 2. Since the basis sets are specific for an atom TYPE, the individual functions occur on
    all atoms of that type.
 3. The word 'Core' in the left margin signals that it is a Core Function (CF) : not a
    degree of freedom in the valence set, but only used to ensure orthogonalization of
    the other valence basis functions on the frozen Core Orbitals.


 (power of) X  Y  Z  R     Alpha  on Atom
            ==========     =====     ==========

 C                                    1
                                  ---------------------------------------------------------------------------
            0  0  0  0     7.680      1
            0  0  0  0     5.000      2
            0  0  0  1     1.980      3
            0  0  0  1     1.240      4
            1  0  0  0     2.200      5
            0  1  0  0     2.200      6
            0  0  1  0     2.200      7
            1  0  0  0     0.960      8
            0  1  0  0     0.960      9
            0  0  1  0     0.960     10
            2  0  0  0     2.200     11
            1  1  0  0     2.200     12
            1  0  1  0     2.200     13
            0  2  0  0     2.200     14
            0  1  1  0     2.200     15
            0  0  2  0     2.200     16

 Total number of charge fitting functions (nprimf)        84
 Total number of Cartesian basis functions (naos)         16
 Total number of Cartesian core functions  (ncos)          0



 BAS: List of all Elementary Cartesian Basis Functions
 =====================================================

 The numbering in the list below (to the right of the function characteristics) is referred
 to in print-outs of MO eigenvectors and Mulliken populations in the BAS representation
 (as contrasted to the SFO representation).

 Notes:
 1. The functions are characterized by a polynomial prefactor (powers of x,y,z and r) and
    an exponential decay factor alpha.
 2. Since the basis sets are specific for an atom TYPE, the individual functions occur on
    all atoms of that type.
 3. The word 'Core' in the left margin signals that it is a Core Function (CF) : not a
    degree of freedom in the valence set, but only used to ensure orthogonalization of
    the other valence basis functions on the frozen Core Orbitals.


 (power of) X  Y  Z  R     Alpha  on Atom
            ==========     =====     ==========

 C                                    1
                                  ---------------------------------------------------------------------------
            0  0  0  0     7.680      1
            0  0  0  0     5.000      2
            0  0  0  1     1.980      3
            0  0  0  1     1.240      4
            1  0  0  0     2.200      5
            0  1  0  0     2.200      6
            0  0  1  0     2.200      7
            1  0  0  0     0.960      8
            0  1  0  0     0.960      9
            0  0  1  0     0.960     10
            2  0  0  0     2.200     11
            1  1  0  0     2.200     12
            1  0  1  0     2.200     13
            0  2  0  0     2.200     14
            0  1  1  0     2.200     15
            0  0  2  0     2.200     16
1
 ***************************************************************************************************



                                              ***********************
                                              *  T E C H N I C A L  *
                                              ***********************
  



 =============================================================
 P A R A L L E L I Z A T I O N  and  V E C T O R I Z A T I O N
 =============================================================
  
 Nr of parallel processes:                                1
 Maximum vector length in NumInt loops:                 128



 =====================
 S C F   U P D A T E S
 =====================
  
 Max. nr. of cycles:                               300
 Convergence criterion:                              0.0000000100
   secondary criterion:                              0.0000000100

 Mix parameter (when DIIS does not apply):           0.2000000000
 Special mix parameter for the first cycle:          1.0000000000
 Mixed ADIIS+SDIIS will be used                  
    Max number of expansion vectors:                10
    Pure ADIIS when Max([F,P]) is above              0.1000000000
    Pure SDIIS when Max([F,P]) is below              0.0010000000
 Automatic ElectronSmearing (in case of problematic SCF convergence) disabled



 =================
 P R E C I S I O N  ***  (General: NumInt, NeglectFunctionTails, ...)  ***
 =================
  

 NumInt:           Target precision:                12.0000000000
 -------           Initial precision:               10.0000000000
                   Min. precision (optimization):   10.0000000000

 Neglect Functions:          Basis functions:        0.1000000000E-13
 ------------------          Fit functions:          0.1000000000E-13



 ===========================
 L I N E A R   S C A L I N G
 ===========================
  

 Cut-off radii density fit:                        0.1000000000E-97
 Overlap cut-off criterion AO matrix elements:     0.1000000000E-97
 Cut-offs for Coulomb potential and fitted density:0.1000000000E-97
 Cut-off criterion for Coulomb multipole terms:    0.1000000000E-97
 Progressive Convergence parameter:                 0.000000000    
1
 ***************************************************************************************************



                                            ***************************
                                            *  C O M P U T A T I O N  *
                                            ***************************
  

 Number of elements of the density matrix on this node (used, total):       136       136



 ===========================================
 Numerical Integration : Fuzzy Cells (Becke)
 ===========================================
  
 Becke grid quality: VERYGOOD       
  
 Lebedev angular grid order:             min:  13 max:  41
 Nr. of radial points:                   min:  72 max:  72

 Total nr. of points:         72
 Nr. of blocks:                1
 Block length:                72
 Nr. of dummy points:          0


 Test of Precision of the Numerical Integration Grid
 ===================================================

 Integral of the Total Core Density:                   0.00000000000000



 ========================
 Density Fitting (zlmFit)
 ========================
  
 ZlmFit Fit Quality: VERYGOOD       
  
 Max L-expansion:                        min:   0 max:   0
 Nr. of radial interpolation points:     min: 160 max: 160



 =====
 S C F  ***  ScaSCF  ***
 =====
  

 CYCLE    1
 SCF Error: norm([F,P])=      0.000000000000, max([F,P])=      0.000000000000
 orbitals (Q,E):
 ---------------
 S :1...4            ( 2.00   -17.9904)  ( 2.00    -4.3790)  ( 0.00    -1.9023)  ( 0.00    14.7299)
 P :1...2            ( 2.00    -4.2577)  ( 0.00    -1.7536)
 D :1...1            ( 0.00    -1.9800)

 CYCLE    2
 SCF Error: norm([F,P])=      3.727008238743, max([F,P])=      2.806949130152
 orbitals (Q,E):
 ---------------
 S :1...3            ( 2.00    -8.5647)  ( 2.00    -0.1226)  ( 0.00     0.8014)
 P :1...2            ( 2.00     0.1197)  ( 0.00     0.9563)
 D :1...1            ( 0.00     1.6337)

 CYCLE    3
  SDIIS (wt  0.000):  0.1863  0.8137
 A-DIIS (wt  1.000):  0.0525  0.9475
  DIIS coefficients:  0.0525  0.9475
 SCF Error: norm([F,P])=      1.071636001896, max([F,P])=      0.926529415312
 orbitals (Q,E):
 ---------------
 S :1...3            ( 2.00   -10.7786)  ( 2.00    -0.7910)  ( 0.00     0.2323)
 P :1...2            ( 2.00    -0.4748)  ( 0.00     0.2422)
 D :1...1            ( 0.00     0.9779)

 CYCLE    4
  SDIIS (wt  0.000):  0.3317  0.6683
 A-DIIS (wt  1.000):  0.1755  0.8245
  DIIS coefficients:  0.1755  0.8245
 SCF Error: norm([F,P])=      0.545115533412, max([F,P])=      0.428279404247
 orbitals (Q,E):
 ---------------
 S :1...3            ( 2.00    -9.8029)  ( 2.00    -0.4255)  ( 0.00     0.4761)
 P :1...2            ( 2.00    -0.1210)  ( 0.00     0.5318)
 D :1...1            ( 0.00     1.3122)

 CYCLE    5
  SDIIS (wt  0.000): -0.0363  0.2391  0.7973
 A-DIIS (wt  1.000):  0.0000  0.0000  1.0000
  DIIS coefficients:  0.0000  0.0000  1.0000
 SCF Error: norm([F,P])=      0.210904457265, max([F,P])=      0.173356992093
 orbitals (Q,E):
 ---------------
 S :1...3            ( 2.00   -10.2470)  ( 2.00    -0.5827)  ( 0.00     0.3614)
 P :1...2            ( 2.00    -0.2650)  ( 0.00     0.3878)
 D :1...1            ( 0.00     1.1636)

 CYCLE    6
  SDIIS (wt  0.000): -0.0073 -0.0845  0.3606  0.7312
 A-DIIS (wt  1.000):  0.0000  0.0000  0.3280  0.6720
  DIIS coefficients:  0.0000  0.0000  0.3280  0.6720
 SCF Error: norm([F,P])=      0.156317373022, max([F,P])=      0.125164812022
 orbitals (Q,E):
 ---------------
 S :1...3            ( 2.00   -10.0219)  ( 2.00    -0.4999)  ( 0.00     0.4194)
 P :1...2            ( 2.00    -0.1872)  ( 0.00     0.4587)
 D :1...1            ( 0.00     1.2407)

 CYCLE    7
  SDIIS (wt  0.786): -0.0009 -0.0058 -0.0294  0.1327  0.9034
 A-DIIS (wt  0.214):  0.0000  0.0000  0.0000  0.0000  1.0000
  DIIS coefficients: -0.0007 -0.0045 -0.0231  0.1043  0.9241
 SCF Error: norm([F,P])=      0.027373873641, max([F,P])=      0.022209604150
 orbitals (Q,E):
 ---------------
 S :1...3            ( 2.00   -10.0600)  ( 2.00    -0.5134)  ( 0.00     0.4096)
 P :1...2            ( 2.00    -0.1996)  ( 0.00     0.4465)
 D :1...1            ( 0.00     1.2280)

 CYCLE    8
  SDIIS (wt  0.975):  0.0000  0.0007  0.0014 -0.0159  0.0641  0.9497
 A-DIIS (wt  0.025):  0.0000  0.0000  0.0000  0.0000  0.0000  1.0000
  DIIS coefficients:  0.0000  0.0007  0.0013 -0.0155  0.0625  0.9510
 SCF Error: norm([F,P])=      0.004363804775, max([F,P])=      0.003523668371
 orbitals (Q,E):
 ---------------
 S :1...3            ( 2.00   -10.0546)  ( 2.00    -0.5114)  ( 0.00     0.4110)
 P :1...2            ( 2.00    -0.1977)  ( 0.00     0.4482)
 D :1...1            ( 0.00     1.2299)

 CYCLE    9
  SDIIS (wt  1.000):  0.0000  0.0000 -0.0002  0.0008  0.0022  0.9973
  DIIS coefficients:  0.0000  0.0000 -0.0002  0.0008  0.0022  0.9973
 SCF Error: norm([F,P])=      0.000084420651, max([F,P])=      0.000068071226
 orbitals (Q,E):
 ---------------
 S :1...3            ( 2.00   -10.0547)  ( 2.00    -0.5115)  ( 0.00     0.4110)
 P :1...2            ( 2.00    -0.1978)  ( 0.00     0.4482)
 D :1...1            ( 0.00     1.2299)

 CYCLE   10
  SDIIS (wt  1.000):  0.0000  0.0005  0.0257  0.9739
  DIIS coefficients:  0.0000  0.0005  0.0257  0.9739
 SCF Error: norm([F,P])=      0.000000088318, max([F,P])=      0.000000072114
 orbitals (Q,E):
 ---------------
 S :1...3            ( 2.00   -10.0547)  ( 2.00    -0.5115)  ( 0.00     0.4110)
 P :1...2            ( 2.00    -0.1978)  ( 0.00     0.4482)
 D :1...1            ( 0.00     1.2299)

 CYCLE   11
  SDIIS (wt  1.000):  0.0000 -0.0006  1.0006
  DIIS coefficients:  0.0000 -0.0006  1.0006
 SCF Error: norm([F,P])=      0.000000000556, max([F,P])=      0.000000000459
 orbitals (Q,E):
 ---------------
 S :1...3            ( 2.00   -10.0547)  ( 2.00    -0.5115)  ( 0.00     0.4110)
 P :1...2            ( 2.00    -0.1978)  ( 0.00     0.4482)
 D :1...1            ( 0.00     1.2299)

 SCF CONVERGED

 CYCLE   12
1
 ***************************************************************************************************



                                                *******************
                                                *  R E S U L T S  *
                                                *******************
  
 *** Using FIT density in Focky
  SDIIS (wt  1.000):  0.0001 -0.0149  1.0149
  DIIS coefficients:  0.0001 -0.0149  1.0149
 SCF Error: norm([F,P])=      0.000000000003, max([F,P])=      0.000000000003

 Scaled ZORA Orbital Energies, per Irrep and Spin:
 =================================================
                        Occup              E (au)              E (eV)       Diff (eV) with prev. cycle
[...]
                     ( 0.00     0.1059)  ( 0.00     0.1311)  ( 0.00     0.1589)  ( 0.00     0.1708)

 CYCLE    2
  SDIIS (wt  0.000):  0.0222  0.9778
 A-DIIS (wt  1.000):  0.0000  1.0000
  DIIS coefficients:  0.0000  1.0000
 SCF Error: norm([F,P])=      0.039480019700, max([F,P])=      0.006415056514
 orbitals (Q,E):
 ---------------
 A :15...25          ( 2.00    -0.4222)  ( 2.00    -0.4136)  ( 2.00    -0.4006)  ( 2.00    -0.3775)
                     ( 2.00    -0.3731)  ( 2.00    -0.3464)  ( 2.00    -0.3274)  ( 2.00    -0.2927)
                     ( 2.00    -0.2421)  ( 2.00    -0.2229)  ( 0.00    -0.0414)

 CYCLE    3
  SDIIS (wt  0.000):  0.0027  0.5706  0.4267
 A-DIIS (wt  1.000):  0.0000  0.6018  0.3982
  DIIS coefficients:  0.0000  0.6018  0.3982
 SCF Error: norm([F,P])=      0.051849394384, max([F,P])=      0.010844834572
 orbitals (Q,E):
 ---------------
 A :15...25          ( 2.00    -0.4239)  ( 2.00    -0.4127)  ( 2.00    -0.3988)  ( 2.00    -0.3772)
                     ( 2.00    -0.3731)  ( 2.00    -0.3471)  ( 2.00    -0.3280)  ( 2.00    -0.2949)
                     ( 2.00    -0.2448)  ( 2.00    -0.2180)  ( 0.00    -0.0453)

 CYCLE    4
  SDIIS (wt  0.993):  0.2532  0.1972  0.5496
 A-DIIS (wt  0.007):  0.0000  0.0000  1.0000
  DIIS coefficients:  0.2513  0.1957  0.5530
 SCF Error: norm([F,P])=      0.008706342072, max([F,P])=      0.001730667595
 orbitals (Q,E):
 ---------------
 A :15...25          ( 2.00    -0.4242)  ( 2.00    -0.4130)  ( 2.00    -0.3990)  ( 2.00    -0.3774)
                     ( 2.00    -0.3733)  ( 2.00    -0.3473)  ( 2.00    -0.3282)  ( 2.00    -0.2957)
                     ( 2.00    -0.2456)  ( 2.00    -0.2185)  ( 0.00    -0.0458)

 CYCLE    5
  SDIIS (wt  1.000):  0.1000  0.0793  0.3261  0.4946
 A-DIIS (wt  0.000):  0.0000  0.0000  0.0685  0.9315
  DIIS coefficients:  0.1000  0.0793  0.3261  0.4946
 SCF Error: norm([F,P])=      0.003547257560, max([F,P])=      0.001007035943
 orbitals (Q,E):
 ---------------
 A :15...25          ( 2.00    -0.4241)  ( 2.00    -0.4129)  ( 2.00    -0.3990)  ( 2.00    -0.3774)
                     ( 2.00    -0.3733)  ( 2.00    -0.3473)  ( 2.00    -0.3283)  ( 2.00    -0.2954)
                     ( 2.00    -0.2452)  ( 2.00    -0.2184)  ( 0.00    -0.0456)

 CYCLE    6
  SDIIS (wt  1.000):  0.0498  0.0392  0.1822  0.3655  0.3634
  DIIS coefficients:  0.0498  0.0392  0.1822  0.3655  0.3634
 SCF Error: norm([F,P])=      0.001783067291, max([F,P])=      0.000533956891
 orbitals (Q,E):
 ---------------
 A :15...25          ( 2.00    -0.4241)  ( 2.00    -0.4129)  ( 2.00    -0.3989)  ( 2.00    -0.3774)
                     ( 2.00    -0.3733)  ( 2.00    -0.3473)  ( 2.00    -0.3282)  ( 2.00    -0.2954)
                     ( 2.00    -0.2453)  ( 2.00    -0.2183)  ( 0.00    -0.0456)

 CYCLE    7
  SDIIS (wt  1.000):  0.0198  0.0156  0.0811  0.1927  0.2625  0.4283
  DIIS coefficients:  0.0198  0.0156  0.0811  0.1927  0.2625  0.4283
 SCF Error: norm([F,P])=      0.000595472554, max([F,P])=      0.000171767204
 orbitals (Q,E):
 ---------------
 A :15...25          ( 2.00    -0.4241)  ( 2.00    -0.4129)  ( 2.00    -0.3990)  ( 2.00    -0.3774)
                     ( 2.00    -0.3733)  ( 2.00    -0.3473)  ( 2.00    -0.3282)  ( 2.00    -0.2955)
                     ( 2.00    -0.2453)  ( 2.00    -0.2183)  ( 0.00    -0.0456)

 CYCLE    8
  SDIIS (wt  1.000):  0.0063  0.0049  0.0272  0.0735  0.1123  0.2544  0.5215
  DIIS coefficients:  0.0063  0.0049  0.0272  0.0735  0.1123  0.2544  0.5215
 SCF Error: norm([F,P])=      0.000137189150, max([F,P])=      0.000037269566
 orbitals (Q,E):
 ---------------
 A :15...25          ( 2.00    -0.4241)  ( 2.00    -0.4129)  ( 2.00    -0.3990)  ( 2.00    -0.3774)
                     ( 2.00    -0.3733)  ( 2.00    -0.3473)  ( 2.00    -0.3282)  ( 2.00    -0.2954)
                     ( 2.00    -0.2453)  ( 2.00    -0.2184)  ( 0.00    -0.0456)

 CYCLE    9
  SDIIS (wt  1.000):  0.0027  0.0021  0.0120  0.0344  0.0539  0.1314  0.3188  0.4447
  DIIS coefficients:  0.0027  0.0021  0.0120  0.0344  0.0539  0.1314  0.3188  0.4447
 SCF Error: norm([F,P])=      0.000038731802, max([F,P])=      0.000006982147
 orbitals (Q,E):
 ---------------
 A :15...25          ( 2.00    -0.4241)  ( 2.00    -0.4129)  ( 2.00    -0.3990)  ( 2.00    -0.3774)
                     ( 2.00    -0.3733)  ( 2.00    -0.3473)  ( 2.00    -0.3282)  ( 2.00    -0.2954)
                     ( 2.00    -0.2453)  ( 2.00    -0.2183)  ( 0.00    -0.0456)

 CYCLE   10
  SDIIS (wt  1.000):  0.0009  0.0007  0.0039  0.0117  0.0187  0.0471  0.1230  0.2414  0.5527
  DIIS coefficients:  0.0009  0.0007  0.0039  0.0117  0.0187  0.0471  0.1230  0.2414  0.5527
 SCF Error: norm([F,P])=      0.000008847004, max([F,P])=      0.000001376241
 orbitals (Q,E):
 ---------------
 A :15...25          ( 2.00    -0.4241)  ( 2.00    -0.4129)  ( 2.00    -0.3990)  ( 2.00    -0.3774)
                     ( 2.00    -0.3733)  ( 2.00    -0.3473)  ( 2.00    -0.3282)  ( 2.00    -0.2954)
                     ( 2.00    -0.2453)  ( 2.00    -0.2183)  ( 0.00    -0.0456)

 CYCLE   11
  SDIIS (wt  1.000):  0.0002  0.0002  0.0010  0.0032  0.0052  0.0132  0.0358  0.0813  0.2408  0.6190
  DIIS coefficients:  0.0002  0.0002  0.0010  0.0032  0.0052  0.0132  0.0358  0.0813  0.2408  0.6190
 SCF Error: norm([F,P])=      0.000001708917, max([F,P])=      0.000000309268
 orbitals (Q,E):
 ---------------
 A :15...25          ( 2.00    -0.4241)  ( 2.00    -0.4129)  ( 2.00    -0.3990)  ( 2.00    -0.3774)
                     ( 2.00    -0.3733)  ( 2.00    -0.3473)  ( 2.00    -0.3282)  ( 2.00    -0.2954)
                     ( 2.00    -0.2453)  ( 2.00    -0.2183)  ( 0.00    -0.0456)

 SCF CONVERGED

 CYCLE   12
 *** Using FIT density in Focky
  SDIIS (wt  1.000):  0.0000  0.0000  0.0001  0.0002  0.0005  0.0023  0.0105  0.0537  0.3232  0.6095
  DIIS coefficients:  0.0000  0.0000  0.0001  0.0002  0.0005  0.0023  0.0105  0.0537  0.3232  0.6095
 SCF Error: norm([F,P])=      0.000000660554, max([F,P])=      0.000000107173
 orbitals (Q,E):
 ---------------
 A :15...34          ( 2.00    -0.4241)  ( 2.00    -0.4129)  ( 2.00    -0.3990)  ( 2.00    -0.3774)
                     ( 2.00    -0.3733)  ( 2.00    -0.3473)  ( 2.00    -0.3282)  ( 2.00    -0.2954)
                     ( 2.00    -0.2453)  ( 2.00    -0.2183)  ( 0.00    -0.0456)  ( 0.00    -0.0030)
                     ( 0.00     0.0123)  ( 0.00     0.0607)  ( 0.00     0.0615)  ( 0.00     0.0883)
                     ( 0.00     0.1057)  ( 0.00     0.1311)  ( 0.00     0.1615)  ( 0.00     0.1722)


 Fit test: (difference of exact and fit density, squared integrated, result summed over spins)
         SCF:                                          0.00055671514988

 Gross Charges per Atom (Z minus electrons)
 ==========================================
            -0.4943   -0.5301   -0.2251   -0.1632    0.1370    0.8651    0.1146   -0.0012   -0.0211   -0.0147
             0.0641    0.0754    0.1934
 Net Total:  0.00000000



 =================================================================
 M U L T I P O L E   D E R I V E D   C H A R G E   A N A L Y S I S
 =================================================================

 See: M. Swart, P.Th. van Duijnen, J.G. Snijders, J.Comput.Chem., (2001), p. 79-88.

 --------------------------------------- 
 Multipole derived atomic charges (a.u.)
 --------------------------------------- 

        Atom    Level:     MDC-m        MDC-d        MDC-q
 ---------------------------------------------------------
     1     O           -0.205473    -0.476758    -0.601528
     2     O           -0.352181    -0.465615    -0.560136
     3     N           -0.075212    -0.619334    -0.721745
     4     C            0.193431     0.265766     0.246104
     5     C            0.217707     0.191813     0.249740
     6     C            0.341029     0.481530     0.740529
     7     H           -0.053404    -0.027289    -0.050290
     8     H           -0.058950    -0.040315    -0.075395
     9     H           -0.069399    -0.054673    -0.049317
    10     H           -0.070205    -0.054509    -0.081575
    11     H            0.004605     0.214395     0.271540
    12     H            0.009558     0.235681     0.240953
    13     H            0.118495     0.349308     0.391120
 *** Using NEW gradient routines ***


 Geometry CYCLE 2
 ==============

 Energy gradients wrt nuclear displacements
 ==========================================

     Atom      Cartesian (a.u./angstrom)
                 X         Y         Z
 ----------------------------------------
     1 O    -0.004249  0.012118 -0.012929
     2 O    -0.009468 -0.015949  0.003525
     3 N    -0.000906  0.009442 -0.001007
     4 C     0.000899 -0.011800 -0.008077
     5 C     0.004626  0.004970  0.004872
     6 C     0.009395  0.011206  0.013635
     7 H     0.000935  0.003145 -0.004093
     8 H    -0.000393 -0.004712 -0.002195
     9 H     0.001930 -0.001314 -0.000301
    10 H     0.001026 -0.001385  0.002039
    11 H     0.000761  0.001462  0.000527
    12 H    -0.002738 -0.000864  0.001418
    13 H    -0.001819 -0.006318  0.002587
 ----------------------------------------

 dE(predicted):    -0.46884E-02, dE(actual):    -0.38727E-02, Trust radius:    0.721110, all in a.u.
 
----------------------------------------------------------------------
Geometry Convergence after Step   2       (Hartree/Angstrom,Angstrom)
----------------------------------------------------------------------
current energy                               -2.71938487 Hartree
energy change                      -0.00387269     0.00100000    F
constrained gradient max            0.01594924     0.00100000    F
constrained gradient rms            0.00637482     0.00066667    F
gradient max                        0.01594924
gradient rms                        0.00637482
cart. step max                      0.16624028     0.01000000    F
cart. step rms                      0.06194043     0.00666667    F
 


 Coordinates (Cartesian)
 =======================

     Atom                    bohr                                 angstrom                 Geometric Variables
                   X           Y           Z              X           Y           Z       (0:frozen, *:LT par.)
 --------------------------------------------------------------------------------------------------------------
     1 O       2.772967   -1.894057    0.816543       1.467391   -1.002292    0.432096      1       2       3
     2 O       2.311812    1.912909   -1.123974       1.223358    1.012268   -0.594781      4       5       6
     3 N      -2.600258    2.265645    0.501541      -1.375997    1.198928    0.265404      7       8       9
     4 C      -1.396670   -0.231084    0.590299      -0.739086   -0.122284    0.312373     10      11      12
     5 C      -2.567520   -2.404041   -0.962376      -1.358673   -1.272164   -0.509267     13      14      15
     6 C       1.380502    0.070357   -0.138520       0.730530    0.037231   -0.073302     16      17      18
     7 H      -1.399749   -0.806192    2.601193      -0.740715   -0.426618    1.376492     19      20      21
     8 H      -1.585708   -4.216087   -0.664547      -0.839120   -2.231057   -0.351663     22      23      24
     9 H      -4.560583   -2.645423   -0.424411      -2.413356   -1.399898   -0.224589     25      26      27
    10 H      -2.492460   -1.947591   -2.993008      -1.318953   -1.030621   -1.583832     28      29      30
    11 H      -4.484530    2.059267    0.901006      -2.373111    1.089717    0.476792     31      32      33
    12 H      -2.468008    2.987322   -1.294584      -1.306013    1.580823   -0.685064     34      35      36
    13 H       4.534484   -1.462899    0.395220       2.399546   -0.774133    0.209142     37      38      39
 --------------------------------------------------------------------------------------------------------------

 Number of elements of the density matrix on this node (used, total):      2337      8646



 ===========================================
 Numerical Integration : Fuzzy Cells (Becke)
 ===========================================
  
 Becke grid quality: NORMAL         
  
 Lebedev angular grid order:             min:  11 max:  23
 Nr. of radial points:                   min:  46 max:  52

 Total nr. of points:      80864
 Nr. of blocks:              632
 Block length:               128
 Nr. of dummy points:         32


 Test of Precision of the Numerical Integration Grid
 ===================================================

 Integral of the Total Core Density:                   0.00000000000000



 ========================
 Density Fitting (zlmFit)
 ========================
  
 ZlmFit Fit Quality: NORMAL         
  
 Max L-expansion:                        min:   5 max:   6
 Nr. of radial interpolation points:     min:  36 max:  54



 =====
 S C F  ***  ScaSCF  ***
 =====
  
 Initial density matrix is taken from previous geometry

 CYCLE    1
 SCF Error: norm([F,P])=      0.395966046742, max([F,P])=      0.193319461980
 orbitals (Q,E):
 ---------------
 A :15...34          ( 2.00    -0.4401)  ( 2.00    -0.4241)  ( 2.00    -0.4118)  ( 2.00    -0.3925)
                     ( 2.00    -0.3890)  ( 2.00    -0.3576)  ( 2.00    -0.3413)  ( 2.00    -0.3128)
                     ( 2.00    -0.2610)  ( 2.00    -0.2278)  ( 0.00    -0.0686)  ( 0.00    -0.0104)
                     ( 0.00     0.0021)  ( 0.00     0.0508)  ( 0.00     0.0534)  ( 0.00     0.0787)
                     ( 0.00     0.0953)  ( 0.00     0.1200)  ( 0.00     0.1355)  ( 0.00     0.1514)

 CYCLE    2
  SDIIS (wt  0.000):  0.0643  0.9357
 A-DIIS (wt  1.000):  0.0000  1.0000
  DIIS coefficients:  0.0000  1.0000
 SCF Error: norm([F,P])=      0.085836458693, max([F,P])=      0.014678055811
 orbitals (Q,E):
 ---------------
 A :15...25          ( 2.00    -0.4162)  ( 2.00    -0.4070)  ( 2.00    -0.3939)  ( 2.00    -0.3717)
                     ( 2.00    -0.3713)  ( 2.00    -0.3375)  ( 2.00    -0.3248)  ( 2.00    -0.2874)
                     ( 2.00    -0.2481)  ( 2.00    -0.2183)  ( 0.00    -0.0411)

 CYCLE    3
  SDIIS (wt  0.000):  0.0123  0.7144  0.2733
 A-DIIS (wt  1.000):  0.0000  0.7919  0.2081
  DIIS coefficients:  0.0000  0.7919  0.2081
 SCF Error: norm([F,P])=      0.213314617000, max([F,P])=      0.047025363829
 orbitals (Q,E):
 ---------------
 A :15...25          ( 2.00    -0.4205)  ( 2.00    -0.4093)  ( 2.00    -0.3974)  ( 2.00    -0.3755)
                     ( 2.00    -0.3745)  ( 2.00    -0.3412)  ( 2.00    -0.3274)  ( 2.00    -0.2912)
                     ( 2.00    -0.2440)  ( 2.00    -0.2187)  ( 0.00    -0.0457)

 CYCLE    4
  SDIIS (wt  0.934):  0.3968  0.0380  0.5652
 A-DIIS (wt  0.066):  0.2726  0.0000  0.7274
  DIIS coefficients:  0.3886  0.0355  0.5759
 SCF Error: norm([F,P])=      0.047965783178, max([F,P])=      0.007534602847
 orbitals (Q,E):
 ---------------
 A :15...25          ( 2.00    -0.4249)  ( 2.00    -0.4122)  ( 2.00    -0.3997)  ( 2.00    -0.3791)
                     ( 2.00    -0.3771)  ( 2.00    -0.3448)  ( 2.00    -0.3298)  ( 2.00    -0.2961)
                     ( 2.00    -0.2482)  ( 2.00    -0.2192)  ( 0.00    -0.0520)

 CYCLE    5
  SDIIS (wt  1.000):  0.1457 -0.0018  0.2878  0.5683
  DIIS coefficients:  0.1457 -0.0018  0.2878  0.5683
 SCF Error: norm([F,P])=      0.006873381679, max([F,P])=      0.000952968704
 orbitals (Q,E):
 ---------------
 A :15...25          ( 2.00    -0.4246)  ( 2.00    -0.4120)  ( 2.00    -0.3996)  ( 2.00    -0.3789)
                     ( 2.00    -0.3770)  ( 2.00    -0.3445)  ( 2.00    -0.3296)  ( 2.00    -0.2961)
                     ( 2.00    -0.2478)  ( 2.00    -0.2191)  ( 0.00    -0.0514)

 CYCLE    6
  SDIIS (wt  1.000):  0.0594 -0.0043  0.1357  0.3733  0.4360
  DIIS coefficients:  0.0594 -0.0043  0.1357  0.3733  0.4360
 SCF Error: norm([F,P])=      0.003475155355, max([F,P])=      0.001109808521
 orbitals (Q,E):
 ---------------
 A :15...25          ( 2.00    -0.4245)  ( 2.00    -0.4120)  ( 2.00    -0.3996)  ( 2.00    -0.3789)
                     ( 2.00    -0.3769)  ( 2.00    -0.3445)  ( 2.00    -0.3296)  ( 2.00    -0.2959)
                     ( 2.00    -0.2476)  ( 2.00    -0.2191)  ( 0.00    -0.0514)

 CYCLE    7
  SDIIS (wt  1.000):  0.0140 -0.0014  0.0351  0.1335  0.2338  0.5850
  DIIS coefficients:  0.0140 -0.0014  0.0351  0.1335  0.2338  0.5850
 SCF Error: norm([F,P])=      0.000753581386, max([F,P])=      0.000210141076
 orbitals (Q,E):
 ---------------
 A :15...25          ( 2.00    -0.4246)  ( 2.00    -0.4120)  ( 2.00    -0.3996)  ( 2.00    -0.3789)
                     ( 2.00    -0.3769)  ( 2.00    -0.3445)  ( 2.00    -0.3296)  ( 2.00    -0.2960)
                     ( 2.00    -0.2477)  ( 2.00    -0.2191)  ( 0.00    -0.0515)

 CYCLE    8
  SDIIS (wt  1.000):  0.0053 -0.0004  0.0133  0.0553  0.1027  0.2852  0.5387
  DIIS coefficients:  0.0053 -0.0004  0.0133  0.0553  0.1027  0.2852  0.5387
 SCF Error: norm([F,P])=      0.000113521753, max([F,P])=      0.000029855693
 orbitals (Q,E):
 ---------------
 A :15...25          ( 2.00    -0.4246)  ( 2.00    -0.4120)  ( 2.00    -0.3996)  ( 2.00    -0.3789)
                     ( 2.00    -0.3769)  ( 2.00    -0.3445)  ( 2.00    -0.3296)  ( 2.00    -0.2960)
                     ( 2.00    -0.2477)  ( 2.00    -0.2191)  ( 0.00    -0.0515)

 CYCLE    9
  SDIIS (wt  1.000):  0.0020 -0.0001  0.0051  0.0225  0.0429  0.1244  0.3324  0.4706
  DIIS coefficients:  0.0020 -0.0001  0.0051  0.0225  0.0429  0.1244  0.3324  0.4706
 SCF Error: norm([F,P])=      0.000045970555, max([F,P])=      0.000013299252
 orbitals (Q,E):
 ---------------
 A :15...25          ( 2.00    -0.4246)  ( 2.00    -0.4120)  ( 2.00    -0.3996)  ( 2.00    -0.3789)
                     ( 2.00    -0.3769)  ( 2.00    -0.3445)  ( 2.00    -0.3296)  ( 2.00    -0.2960)
                     ( 2.00    -0.2477)  ( 2.00    -0.2191)  ( 0.00    -0.0515)

 CYCLE   10
  SDIIS (wt  1.000):  0.0004  0.0000  0.0011  0.0049  0.0096  0.0287  0.0906  0.1913  0.6732
  DIIS coefficients:  0.0004  0.0000  0.0011  0.0049  0.0096  0.0287  0.0906  0.1913  0.6732
 SCF Error: norm([F,P])=      0.000007172565, max([F,P])=      0.000001305475
 orbitals (Q,E):
 ---------------
 A :15...25          ( 2.00    -0.4246)  ( 2.00    -0.4120)  ( 2.00    -0.3996)  ( 2.00    -0.3789)
                     ( 2.00    -0.3769)  ( 2.00    -0.3445)  ( 2.00    -0.3296)  ( 2.00    -0.2960)
                     ( 2.00    -0.2477)  ( 2.00    -0.2191)  ( 0.00    -0.0515)

 CYCLE   11
  SDIIS (wt  1.000):  0.0001  0.0000  0.0003  0.0014  0.0028  0.0085  0.0311  0.0802  0.3854  0.4902
  DIIS coefficients:  0.0001  0.0000  0.0003  0.0014  0.0028  0.0085  0.0311  0.0802  0.3854  0.4902
 SCF Error: norm([F,P])=      0.000002887255, max([F,P])=      0.000000690734
 orbitals (Q,E):
 ---------------
 A :15...25          ( 2.00    -0.4246)  ( 2.00    -0.4120)  ( 2.00    -0.3996)  ( 2.00    -0.3789)
                     ( 2.00    -0.3769)  ( 2.00    -0.3445)  ( 2.00    -0.3296)  ( 2.00    -0.2960)
                     ( 2.00    -0.2477)  ( 2.00    -0.2191)  ( 0.00    -0.0515)

 SCF CONVERGED

 CYCLE   12
 *** Using FIT density in Focky
  SDIIS (wt  1.000):  0.0000  0.0000  0.0000  0.0001  0.0003  0.0032  0.0137  0.0949  0.2034  0.6844
  DIIS coefficients:  0.0000  0.0000  0.0000  0.0001  0.0003  0.0032  0.0137  0.0949  0.2034  0.6844
 SCF Error: norm([F,P])=      0.000000537220, max([F,P])=      0.000000113533
 orbitals (Q,E):
 ---------------
 A :15...34          ( 2.00    -0.4246)  ( 2.00    -0.4120)  ( 2.00    -0.3996)  ( 2.00    -0.3789)
                     ( 2.00    -0.3769)  ( 2.00    -0.3445)  ( 2.00    -0.3296)  ( 2.00    -0.2960)
                     ( 2.00    -0.2477)  ( 2.00    -0.2191)  ( 0.00    -0.0515)  ( 0.00     0.0003)
                     ( 0.00     0.0116)  ( 0.00     0.0594)  ( 0.00     0.0625)  ( 0.00     0.0879)
                     ( 0.00     0.1055)  ( 0.00     0.1300)  ( 0.00     0.1501)  ( 0.00     0.1634)
