
 *******************************************************************************
 *                                                                             *
 *  --------------------------------                                           *
 *   Amsterdam Modeling Suite (AMS)              2019.303                      *
 *  --------------------------------                                           *
 *                                               r81909 2020-02-21             *
 *                                                                             *
 *                                                                             *
 *                            =====================                            *
 *                            |                   |                            *
 *                            |     D I R A C     |                            *
 *                            |                   |                            *
 *                            =====================                            *
 *                                                                             *
 *                                                                             *
 *   Online information and documentation:  https://www.scm.com/support/       *
 *   E-mail:  support@scm.com   info@scm.com                                   *
 *                                                                             *
 *   Scientific publications using AMS results must be properly referenced     *
 *   See the User Manuals (or the web site) for recommended citations          *
 *   The terms and conditions of the End User License Agreement apply to       *
 *   the use of AMS, https://www.scm.com/license-terms/                        *
 *                                                                             *
 *********************  x86_64_windows_intel / intelmpi  ***********************
 
 Licensed to: Student project account / Theoretische chemie, Vrije Universiteit / Amsterdam / NETHERLANDS
 SCM User ID: u20153
  
 DIRAC 2019.303  RunTime: Apr01-2020 20:28:30  Nodes: 1  Procs: 1

 Temporary files are created in D:\SCMTMP\/kid_0.1869112334
1
 HYDROGEN ATOM RELATIVISTIC, Point Nuc, A and c from libtc   
 N J RN H ZN XION ANUC CLIGHT
 5000    1100.00000000197.36710137  1.00000000  0.00000000    1.007825  0.1370360E+03
  PH   PHI     EPS        DEL        DELRVR
  0.30  0.30     2500.00  0.00001000  0.00001000
 IDIRC  NC1  NDEBU NPRIN  IPUN IRCOR IWCOR
   1   300     0     0     0     0     0
   XALPHA      XLATTER      RNUC
  0.70000000  0.00000000  0.00000000 Point Charge
   XN   XL   XJ      XE          XZ      XDELL
  1.0  0.0  0.5      -1.000       1.000     0.00000
 ICORP=  0  NPCL=  0  DEMP=0.00  PEPS=0.000000
 R(1)=  0.1000000E-08 D=  0.1005080E+01 RNUC=  0.0000000E+00
 converged at cycle   32  DENSITY AVERAGING    0.2400
  MAXIMUM ERROR IN R.V(R) IS   0.79874357E-05
 Q,EY,EV,EZ,ESUM,ETOT,RHO  0.100000E+01 -0.266614E+00 -0.619969E+00 -0.910779E+00 -0.203940E+00 -0.415998E+00  0.337036E-17


 DIRAC CALCULATION
1                    HYDROGEN ATOM RELATIVISTIC, Point Nuc, A and c from libtc


 EXCHANGE COEFFICIENT=  0.7000000           TAIL CORRECTION=  0.           NUCLEAR RADIUS=  0.000E+00
0                       ORBITAL    N    L    J     ELECTRONS     EIGENVALUE                DELTA OF EIGENV.

                          1S1/2  1.0  0.0  0.5     1.000       -0.2039397E+00                 0.2720093E-06


                                        NUCLEAR CHARGE=    1.000000
                            INTEGRAL OF CHARGE DENSITY=    1.000000
                           SUM OF THE ORBITAL ENERGIES=     -0.2039
                                          TOTAL ENERGY=     -0.4160
                                        KINETIC ENERGY=      0.4160
                             NUCLEAR ATTRACTION ENERGY=     -0.9108
                             ELECTRON REPULSION ENERGY=      0.2787
                                       EXCHANGE ENERGY=     -0.2000

 *******************************************************************************

                             D I R A C   E X I T
 NORMAL TERMINATION



 =================
 Timing Statistics
 =================
  
 Total Used :                     CPU=        0.08      System=        0.02     Elapsed=        0.12

 Calls  Section                     ( Mean, Percentage )
 ---------------------------------------------------------------------------------------------------
     2  ><      ................      0.00    0.00             0.00    0.00             0.00    0.00
     1  EXIT PROCEDURE .........      0.08  100.00             0.02  100.00             0.12  100.00


 Currently Open Files (EXIT00)
 ====================

 Unit    Access Format  Status   Type       Ident (file)
 -------------------------------------------------------
   3      SEQ    FORM   TRANSP  NORMAL      LOGFILE
                                          ( logfile )
 
Create H   file=TZ2P-H
XC
  GGA PBE
End
relativistic ZORA
Corepotentials t12.rel
End

 *******************************************************************************
 *                                                                             *
 *  --------------------------------                                           *
 *   Amsterdam Modeling Suite (AMS)              2019.303                      *
 *  --------------------------------                                           *
 *                                               r81909 2020-02-21             *
 *                                                                             *
 *                                                                             *
 *                              =================                              *
 *                              |               |                              *
 *                              |     A D F     |                              *
 *                              |               |                              *
 *                              =================                              *
 *                                                                             *
 *                                                                             *
 *   Online information and documentation:  https://www.scm.com/support/       *
 *   E-mail:  support@scm.com   info@scm.com                                   *
 *                                                                             *
 *   Scientific publications using AMS results must be properly referenced     *
 *   See the User Manuals (or the web site) for recommended citations          *
 *   The terms and conditions of the End User License Agreement apply to       *
 *   the use of AMS, https://www.scm.com/license-terms/                        *
 *                                                                             *
 *********************  x86_64_windows_intel / intelmpi  ***********************
 
 Licensed to: Student project account / Theoretische chemie, Vrije Universiteit / Amsterdam / NETHERLANDS
 SCM User ID: u20153
  
 ADF 2019.303  RunTime: Apr01-2020 20:28:31  Nodes: 1  Procs: 1

 Temporary files are created in D:\SCMTMP\/kid_0.1955103889
 Hydrogen (TZ2P)



 ===========================
 A T T A C H E D   F I L E S
 ===========================
  
 CREATE - Data File:    TZ2P-H
                        Hydrogen (TZ2P)
 Core Potentials:
         file : t12.rel



 ===============================
 M O D E L   P A R A M E T E R S
 ===============================
  
 DENSITY FUNCTIONAL POTENTIAL (scf)
    LDA:                               PW92                                    == Not Default ==
    Gradient Corrections:              PBEc PBEx                               == Not Default ==

 SPIN  (restricted / unrestr.)
    Molecule:                          Restricted                               

 OTHER ASPECTS
    Relativistic Corrections:          scalar (ZORA,MAPA)                      == Not Default ==

    Nuclear Charge Density Model:      Point Charge Nuclei                      
    Core Treatment:                    Frozen Orbital(s)                        

    Hyperfine or Zeeman Interaction:   ---                                      



 =====================================
 S Y M M E T R Y ,   E L E C T R O N S
 =====================================
  
 Symmetry: ATOM

 Irreducible Representations, including subspecies
 -------------------------------------------------
 S
 P:x  P:y  P:z
 D:z2  D:x2-y2  D:xy  D:xz  D:yz
 F:z3  F:z  F:xyz  F:z2x  F:z2y  F:x  F:y


 Configuration of Valence Electrons
 ==================================

          Occupation Numbers
          -------------------------------------------------
 S        1
 P        0
 D        0
 F        0
          -------------------------------------------------

 Total:   1

 Net Charge: 0 (Nuclei minus Electrons)

 Preset values for MO occupations will be applied through SCF cycle no. 1000000
 Thereafter, the program will assign electrons to MOs that are spatially
 similar to the occupied MOs in a "reference" cycle ("KeepOrbitals").
 The reference cycle is always the PREVIOUS cycle: it will evolve with
 the SCF procedure.



 ================================
 (Slater-type)  F U N C T I O N S  ***  (Basis and Fit)  ***
 ================================
  

 Atom Type    1  (H)
 ==============

 Valence Basis Sets:   5
 -----------------------
   1 S    0.690000
   1 S    0.920000
   1 S    1.580000
   2 P    1.250000
   3 D    2.500000


 BAS: List of all Elementary Cartesian Basis Functions
 =====================================================

 The numbering in the list below (to the right of the function characteristics) is referred
 to in print-outs of MO eigenvectors and Mulliken populations in the BAS representation
 (as contrasted to the SFO representation).

 Notes:
 1. The functions are characterized by a polynomial prefactor (powers of x,y,z and r) and
    an exponential decay factor alpha.
 2. Since the basis sets are specific for an atom TYPE, the individual functions occur on
    all atoms of that type.
 3. The word 'Core' in the left margin signals that it is a Core Function (CF) : not a
    degree of freedom in the valence set, but only used to ensure orthogonalization of
    the other valence basis functions on the frozen Core Orbitals.


 (power of) X  Y  Z  R     Alpha  on Atom
            ==========     =====     ==========

 H                                    1
                                  ---------------------------------------------------------------------------
            0  0  0  0     0.690      1
            0  0  0  0     0.920      2
            0  0  0  0     1.580      3
            1  0  0  0     1.250      4
            0  1  0  0     1.250      5
            0  0  1  0     1.250      6
            2  0  0  0     2.500      7
            1  1  0  0     2.500      8
            1  0  1  0     2.500      9
            0  2  0  0     2.500     10
            0  1  1  0     2.500     11
            0  0  2  0     2.500     12

 Total number of charge fitting functions (nprimf)        50
 Total number of Cartesian basis functions (naos)         12
 Total number of Cartesian core functions  (ncos)          0



 BAS: List of all Elementary Cartesian Basis Functions
 =====================================================

 The numbering in the list below (to the right of the function characteristics) is referred
 to in print-outs of MO eigenvectors and Mulliken populations in the BAS representation
 (as contrasted to the SFO representation).

 Notes:
 1. The functions are characterized by a polynomial prefactor (powers of x,y,z and r) and
    an exponential decay factor alpha.
 2. Since the basis sets are specific for an atom TYPE, the individual functions occur on
    all atoms of that type.
 3. The word 'Core' in the left margin signals that it is a Core Function (CF) : not a
    degree of freedom in the valence set, but only used to ensure orthogonalization of
    the other valence basis functions on the frozen Core Orbitals.


 (power of) X  Y  Z  R     Alpha  on Atom
            ==========     =====     ==========

 H                                    1
                                  ---------------------------------------------------------------------------
            0  0  0  0     0.690      1
            0  0  0  0     0.920      2
            0  0  0  0     1.580      3
            1  0  0  0     1.250      4
            0  1  0  0     1.250      5
            0  0  1  0     1.250      6
            2  0  0  0     2.500      7
            1  1  0  0     2.500      8
            1  0  1  0     2.500      9
            0  2  0  0     2.500     10
            0  1  1  0     2.500     11
            0  0  2  0     2.500     12
1
 ***************************************************************************************************



                                              ***********************
                                              *  T E C H N I C A L  *
                                              ***********************
  



 =============================================================
 P A R A L L E L I Z A T I O N  and  V E C T O R I Z A T I O N
 =============================================================
  
 Nr of parallel processes:                                1
 Maximum vector length in NumInt loops:                 128



 =====================
 S C F   U P D A T E S
 =====================
  
 Max. nr. of cycles:                               300
 Convergence criterion:                              0.0000000100
   secondary criterion:                              0.0000000100

 Mix parameter (when DIIS does not apply):           0.2000000000
 Special mix parameter for the first cycle:          1.0000000000
 Mixed ADIIS+SDIIS will be used                  
    Max number of expansion vectors:                10
    Pure ADIIS when Max([F,P]) is above              0.1000000000
    Pure SDIIS when Max([F,P]) is below              0.0010000000
 Automatic ElectronSmearing (in case of problematic SCF convergence) disabled



 =================
 P R E C I S I O N  ***  (General: NumInt, NeglectFunctionTails, ...)  ***
 =================
  

 NumInt:           Target precision:                12.0000000000
 -------           Initial precision:               10.0000000000
                   Min. precision (optimization):   10.0000000000

 Neglect Functions:          Basis functions:        0.1000000000E-13
 ------------------          Fit functions:          0.1000000000E-13



 ===========================
 L I N E A R   S C A L I N G
 ===========================
  

 Cut-off radii density fit:                        0.1000000000E-97
 Overlap cut-off criterion AO matrix elements:     0.1000000000E-97
 Cut-offs for Coulomb potential and fitted density:0.1000000000E-97
 Cut-off criterion for Coulomb multipole terms:    0.1000000000E-97
 Progressive Convergence parameter:                 0.000000000    
1
 ***************************************************************************************************



                                            ***************************
                                            *  C O M P U T A T I O N  *
                                            ***************************
  

 Number of elements of the density matrix on this node (used, total):        78        78



 ===========================================
 Numerical Integration : Fuzzy Cells (Becke)
 ===========================================
  
 Becke grid quality: VERYGOOD       
  
 Lebedev angular grid order:             min:  13 max:  41
 Nr. of radial points:                   min:  64 max:  64

 Total nr. of points:         64
 Nr. of blocks:                1
 Block length:                64
 Nr. of dummy points:          0


 Test of Precision of the Numerical Integration Grid
 ===================================================

 Integral of the Total Core Density:                   0.00000000000000



 ========================
 Density Fitting (zlmFit)
 ========================
  
 ZlmFit Fit Quality: VERYGOOD       
  
 Max L-expansion:                        min:   0 max:   0
 Nr. of radial interpolation points:     min: 130 max: 130



 =====
 S C F  ***  ScaSCF  ***
 =====
  

 CYCLE    1
 SCF Error: norm([F,P])=      0.000000000000, max([F,P])=      0.000000000000
 orbitals (Q,E):
 ---------------
 S :1...3            ( 1.00    -0.5000)  ( 0.00    -0.0900)  ( 0.00     1.2936)
 P :1...1            ( 0.00     0.1562)
 D :1...1            ( 0.00     2.2914)

 CYCLE    2
 SCF Error: norm([F,P])=      0.031550472103, max([F,P])=      0.030121296888
 orbitals (Q,E):
 ---------------
 S :1...2            ( 1.00    -0.2218)  ( 0.00     0.1019)
 P :1...1            ( 0.00     0.4189)
 D :1...1            ( 0.00     2.5824)

 CYCLE    3
  SDIIS (wt  0.000):  0.1996  0.8004
 A-DIIS (wt  1.000):  0.0000  1.0000
  DIIS coefficients:  0.0000  1.0000
 SCF Error: norm([F,P])=      0.008620363195, max([F,P])=      0.008345718591
 orbitals (Q,E):
 ---------------
 S :1...2            ( 1.00    -0.2422)  ( 0.00     0.0889)
 P :1...1            ( 0.00     0.4024)
 D :1...1            ( 0.00     2.5619)

 CYCLE    4
  SDIIS (wt  0.993):  0.1666  0.8334
 A-DIIS (wt  0.007):  0.0000  1.0000
  DIIS coefficients:  0.1654  0.8346
 SCF Error: norm([F,P])=      0.001733197582, max([F,P])=      0.001719525172
 orbitals (Q,E):
 ---------------
 S :1...2            ( 1.00    -0.2386)  ( 0.00     0.0908)
 P :1...1            ( 0.00     0.4054)
 D :1...1            ( 0.00     2.5657)

 CYCLE    5
  SDIIS (wt  1.000):  0.0236  0.9764
  DIIS coefficients:  0.0236  0.9764
 SCF Error: norm([F,P])=      0.000043722685, max([F,P])=      0.000039815539
 orbitals (Q,E):
 ---------------
 S :1...2            ( 1.00    -0.2386)  ( 0.00     0.0908)
 P :1...1            ( 0.00     0.4054)
 D :1...1            ( 0.00     2.5656)

 CYCLE    6
  SDIIS (wt  1.000): -0.0578  1.0578
  DIIS coefficients: -0.0578  1.0578
 SCF Error: norm([F,P])=      0.000002387703, max([F,P])=      0.000002161666
 orbitals (Q,E):
 ---------------
 S :1...2            ( 1.00    -0.2386)  ( 0.00     0.0908)
 P :1...1            ( 0.00     0.4054)
 D :1...1            ( 0.00     2.5656)

 CYCLE    7
  SDIIS (wt  1.000): -0.0032  1.0032
  DIIS coefficients: -0.0032  1.0032
 SCF Error: norm([F,P])=      0.000000007756, max([F,P])=      0.000000007262
 orbitals (Q,E):
 ---------------
 S :1...2            ( 1.00    -0.2386)  ( 0.00     0.0908)
 P :1...1            ( 0.00     0.4054)
 D :1...1            ( 0.00     2.5656)

 SCF CONVERGED

 CYCLE    8
1
 ***************************************************************************************************



                                                *******************
                                                *  R E S U L T S  *
                                                *******************
  
 *** Using FIT density in Focky
  SDIIS (wt  1.000):  0.0192  0.9808
  DIIS coefficients:  0.0192  0.9808
 SCF Error: norm([F,P])=      0.000000000152, max([F,P])=      0.000000000142

 Scaled ZORA Orbital Energies, per Irrep and Spin:
 =================================================
                        Occup              E (au)              E (eV)       Diff (eV) with prev. cycle
                        -----      --------------------        ------       --------------------------
 S
               1        1.000     -0.23862975420190E+00        -6.493               7.48E-09
               2        0.000      0.90763523721234E-01         2.470
               3        0.000      0.15217347450008E+01        41.409
 P
               1        0.000      0.40536414462565E+00        11.031
 D
               1        0.000      0.25655939238649E+01        69.813


 Partially Occupied:
               1 S                -0.23862975420190E+00
  
 LUMO :        2 S                 0.90763523721234E-01
  


 Orbital Energies, all Irreps
 ========================================

 Irrep        no.  (spin)   Occup              E (au)                E (eV)
 ---------------------------------------------------------------------------
 S             1             1.00       -0.23862975420190E+00        -6.4934
 S             2             0.00        0.90763523721234E-01         2.4698
 P             1             0.00        0.40536414462565E+00        11.0305
 S             3             0.00        0.15217347450008E+01        41.4085
 D             1             0.00        0.25655939238649E+01        69.8134


 All Electron Calculation, thus no Orbital Energies of the Core Orbitals are calculated



 =======================================
 M U L L I K E N   P O P U L A T I O N S
 =======================================
  
 The survey below gives for each atom:
 a) the total charge (Z minus electrons)
 b) the net spin polarization (nr of electrons spin-A minus spin-B)
 c) for each spin the atomic electron valence density (integrated) per L-value.

 Atom              Charge    Spin density          S         P         D         F
 ----              ------    ------------       ------    ------    ------    ------
 1 H               0.0000                       1.0000    0.0000    0.0000    0.0000

 Populations of individual BAS functions
 ----------------------------------------
 1 H            0.2107  0.6786  0.1108  0.0000  0.0000  0.0000  0.0000  0.0000  0.0000  0.0000
                0.0000  0.0000

 Gross Charges per Atom (Z minus electrons)
 ==========================================
             0.0000
 Net Total:  0.00000000



 =======================================================================
 Electrostatic potential at the Nuclei due to electrons and other nuclei
 =======================================================================
  
         Atom                  Potential
         ----                  ---------
     1)   H                   0.94465291
 
 
 ========================
 No memory problems found
 ========================
 
 Maximum number of active allocate calls:         376
 
 *******************************************************************************

                             A D F   E X I T
 NORMAL TERMINATION



 =================
 Timing Statistics
 =================
  
 Total Used :                     CPU=        0.52      System=        0.09     Elapsed=        0.77

 Calls  Section                     ( Mean, Percentage )
 ---------------------------------------------------------------------------------------------------
     3  ><      ................      0.00    0.00             0.00    0.00             0.00    1.70
     1  INIT    ................      0.11   21.21             0.00    0.00             0.11   14.51
     1  GEOMET  ................      0.03    6.06             0.00    0.00             0.04    5.10
     1  INPUTA  ................      0.00    0.00             0.00    0.00             0.01    0.92
     1  MAINSY  ................      0.00    0.00             0.02   16.67             0.03    3.92
     1  SYMFIT  ................      0.02    3.03             0.00    0.00             0.01    1.44
     1  CORORT  ................      0.00    0.00             0.00    0.00             0.00    0.00
     1  SYMORB  ................      0.00    0.00             0.00    0.00             0.01    1.18
     1  CLSMAT  ................      0.02    3.03             0.00    0.00             0.01    1.70
     1  ORTHON  ................      0.00    0.00             0.02   16.67             0.02    2.22
     1  GENPT   ................      0.02    3.03             0.00    0.00             0.03    3.40
     1  PTBAS   ................      0.00    0.00             0.00    0.00             0.01    1.96
     8  FOCKY   ................      0.03   51.52             0.00   16.67             0.04   40.13
     8  FOCKTR  ................      0.00    0.00             0.00    0.00             0.00    2.09
     8  SDIIS   ................      0.00    6.06             0.00   33.33             0.01   11.24
     1  COREPS  ................      0.02    3.03             0.00    0.00             0.02    3.27
     1  POPAN   ................      0.00    0.00             0.00    0.00             0.01    1.05
     1  DEBYE   ................      0.00    0.00             0.02   16.67             0.01    1.70
     1  EXIT PROCEDURE .........      0.02    3.03             0.00    0.00             0.02    2.48


 Currently Open Files (EXIT00)
 ====================

 Unit    Access Format  Status   Type       Ident (file)
 -------------------------------------------------------
   3      SEQ    FORM   TRANSP  NORMAL      LOGFILE
                                          ( logfile )

 ***************************************************************************************************
 (LOGFILE)
 <Apr01-2020> <20:28:30>  DIRAC 2019.303  RunTime: Apr01-2020 20:28:30  Nodes: 1  Procs: 1
 <Apr01-2020> <20:28:31>  NORMAL TERMINATION
 <Apr01-2020> <20:28:31>  END
 <Apr01-2020> <20:28:31>  ADF 2019.303  RunTime: Apr01-2020 20:28:31  Nodes: 1  Procs: 1
 <Apr01-2020> <20:28:31>  Hydrogen (TZ2P)
 <Apr01-2020> <20:28:31>  RunType   : CREATE
 <Apr01-2020> <20:28:31>  Net Charge: 0 (Nuclei minus Electrons)
 <Apr01-2020> <20:28:31>  Symmetry  : ATOM
  Coordinates
    Atom         X           Y           Z   (Angstrom)
    1.H         0.000000    0.000000    0.000000
 <Apr01-2020> <20:28:31>  >>>> CORORT
 <Apr01-2020> <20:28:31>  >>>> CLSMAT
 <Apr01-2020> <20:28:31>  >>>> ORTHON
 <Apr01-2020> <20:28:31>  >>>> GENPT
 <Apr01-2020> <20:28:31>  Block Length=  64
 <Apr01-2020> <20:28:31>  >>>> PTBAS
 <Apr01-2020> <20:28:31>  >>>> CYCLE
 <Apr01-2020> <20:28:31>              |Error|         MaxErr       Wt(A-DIIS)
 <Apr01-2020> <20:28:31>      1      0.00000000      0.00000000
 <Apr01-2020> <20:28:31>      2      0.03155047      0.03012130
 <Apr01-2020> <20:28:31>      3      0.00862036      0.00834572    100.0
 <Apr01-2020> <20:28:31>      4      0.00173320      0.00171953      0.7
 <Apr01-2020> <20:28:31>      5      0.00004372      0.00003982      0.0
 <Apr01-2020> <20:28:31>      6      0.00000239      0.00000216      0.0
 <Apr01-2020> <20:28:31>      7      0.00000001      0.00000001      0.0
 <Apr01-2020> <20:28:31>  SCF converged
 <Apr01-2020> <20:28:31>      8      0.00000000      0.00000000      0.0
 <Apr01-2020> <20:28:31>  >>>> POPAN
 <Apr01-2020> <20:28:31>  >>>> DEBYE
 <Apr01-2020> <20:28:32>  NORMAL TERMINATION
 <Apr01-2020> <20:28:32>  END

 *******************************************************************************
 *                                                                             *
 *  --------------------------------                                           *
 *   Amsterdam Modeling Suite (AMS)              2019.303                      *
 *  --------------------------------                                           *
 *                                               r81909 2020-02-21             *
 *                                                                             *
 *                                                                             *
 *                            =====================                            *
 *                            |                   |                            *
 *                            |     D I R A C     |                            *
 *                            |                   |                            *
 *                            =====================                            *
 *                                                                             *
 *                                                                             *
 *   Online information and documentation:  https://www.scm.com/support/       *
 *   E-mail:  support@scm.com   info@scm.com                                   *
 *                                                                             *
 *   Scientific publications using AMS results must be properly referenced     *
 *   See the User Manuals (or the web site) for recommended citations          *
 *   The terms and conditions of the End User License Agreement apply to       *
 *   the use of AMS, https://www.scm.com/license-terms/                        *
 *                                                                             *
 *********************  x86_64_windows_intel / intelmpi  ***********************
 
 Licensed to: Student project account / Theoretische chemie, Vrije Universiteit / Amsterdam / NETHERLANDS
 SCM User ID: u20153
  
 DIRAC 2019.303  RunTime: Apr01-2020 20:28:32  Nodes: 1  Procs: 1

 Temporary files are created in D:\SCMTMP\/kid_0.499284362
1
 NITROGEN ATOM all electron RELATIVISTIC, Point Nuc, A and c 
 N J RN H ZN XION ANUC CLIGHT
 5000    4100.00000000197.36710137  7.00000000  0.00000000   14.003074  0.1370360E+03
  PH   PHI     EPS        DEL        DELRVR
  0.30  0.30     2500.00  0.00001000  0.00001000
 IDIRC  NC1  NDEBU NPRIN  IPUN IRCOR IWCOR
   1   300     0     0     0     0     0
   XALPHA      XLATTER      RNUC
  0.70000000  0.00000000  0.00000000 Point Charge
   XN   XL   XJ      XE          XZ      XDELL
  1.0  0.0  0.5      -5.000       2.000     0.00000
  2.0  0.0  0.5      -1.000       2.000     0.00000
  2.0  1.0  0.5      -1.000       2.000     0.00000
  2.0  1.0  1.5      -1.000       1.000     0.00000
 ICORP=  0  NPCL=  0  DEMP=0.00  PEPS=0.000000
 R(1)=  0.1000000E-08 D=  0.1005080E+01 RNUC=  0.0000000E+00
 converged at cycle   25  DENSITY AVERAGING    0.3000
  MAXIMUM ERROR IN R.V(R) IS   0.97905511E-05
 Q,EY,EV,EZ,ESUM,ETOT,RHO  0.700000E+01 -0.796419E+01 -0.840156E+02 -0.127663E+03 -0.300692E+02 -0.538837E+02  0.270066E-14


 DIRAC CALCULATION
1                    NITROGEN ATOM all electron RELATIVISTIC, Point Nuc, A and c from libtc


 EXCHANGE COEFFICIENT=  0.7000000           TAIL CORRECTION=  0.           NUCLEAR RADIUS=  0.000E+00
0                       ORBITAL    N    L    J     ELECTRONS     EIGENVALUE                DELTA OF EIGENV.

                          1S1/2  1.0  0.0  0.5     2.000       -0.1403720E+02                 0.4993583E-04
                          2S1/2  2.0  0.0  0.5     2.000       -0.6456810E+00                 0.6544571E-05
                          2P1/2  2.0  1.0  0.5     2.000       -0.2347008E+00                 0.5687228E-05
                          2P3/2  2.0  1.0  1.5     1.000       -0.2339893E+00                 0.5679256E-05


                                        NUCLEAR CHARGE=    7.000000
                            INTEGRAL OF CHARGE DENSITY=    7.000000
                           SUM OF THE ORBITAL ENERGIES=    -30.0692
                                          TOTAL ENERGY=    -53.8837
                                        KINETIC ENERGY=     53.9465
                             NUCLEAR ATTRACTION ENERGY=   -127.6627
                             ELECTRON REPULSION ENERGY=     25.8056
                                       EXCHANGE ENERGY=     -5.9731

 *******************************************************************************

                             D I R A C   E X I T
 NORMAL TERMINATION



 =================
 Timing Statistics
 =================
  
 Total Used :                     CPU=        0.11      System=        0.00     Elapsed=        0.15

 Calls  Section                     ( Mean, Percentage )
 ---------------------------------------------------------------------------------------------------
     2  ><      ................      0.00    0.00             0.00    0.00             0.00    0.00
     1  EXIT PROCEDURE .........      0.11  100.00             0.00    0.00             0.15  100.00


 Currently Open Files (EXIT00)
 ====================

 Unit    Access Format  Status   Type       Ident (file)
 -------------------------------------------------------
   3      SEQ    FORM   TRANSP  NORMAL      LOGFILE
                                          ( logfile )
 
Create N   file=TZ2P-N
XC
  GGA PBE
End
relativistic ZORA
Corepotentials t12.rel
End

 *******************************************************************************
 *                                                                             *
 *  --------------------------------                                           *
 *   Amsterdam Modeling Suite (AMS)              2019.303                      *
 *  --------------------------------                                           *
 *                                               r81909 2020-02-21             *
 *                                                                             *
 *                                                                             *
 *                              =================                              *
 *                              |               |                              *
 *                              |     A D F     |                              *
 *                              |               |                              *
 *                              =================                              *
 *                                                                             *
 *                                                                             *
 *   Online information and documentation:  https://www.scm.com/support/       *
 *   E-mail:  support@scm.com   info@scm.com                                   *
 *                                                                             *
 *   Scientific publications using AMS results must be properly referenced     *
 *   See the User Manuals (or the web site) for recommended citations          *
 *   The terms and conditions of the End User License Agreement apply to       *
 *   the use of AMS, https://www.scm.com/license-terms/                        *
 *                                                                             *
 *********************  x86_64_windows_intel / intelmpi  ***********************
 
 Licensed to: Student project account / Theoretische chemie, Vrije Universiteit / Amsterdam / NETHERLANDS
 SCM User ID: u20153
  
 ADF 2019.303  RunTime: Apr01-2020 20:28:32  Nodes: 1  Procs: 1

 Temporary files are created in D:\SCMTMP\/kid_0.604061703
 Nitrogen (TZ2P)



 ===========================
 A T T A C H E D   F I L E S
 ===========================
  
 CREATE - Data File:    TZ2P-N
                        Nitrogen (TZ2P)
 Core Potentials:
         file : t12.rel



 ===============================
 M O D E L   P A R A M E T E R S
 ===============================
  
 DENSITY FUNCTIONAL POTENTIAL (scf)
    LDA:                               PW92                                    == Not Default ==
    Gradient Corrections:              PBEc PBEx                               == Not Default ==

 SPIN  (restricted / unrestr.)
    Molecule:                          Restricted                               

 OTHER ASPECTS
    Relativistic Corrections:          scalar (ZORA,MAPA)                      == Not Default ==

    Nuclear Charge Density Model:      Point Charge Nuclei                      
    Core Treatment:                    Frozen Orbital(s)                        

    Hyperfine or Zeeman Interaction:   ---                                      



 =====================================
 S Y M M E T R Y ,   E L E C T R O N S
 =====================================
  
 Symmetry: ATOM

 Irreducible Representations, including subspecies
 -------------------------------------------------
 S
 P:x  P:y  P:z
 D:z2  D:x2-y2  D:xy  D:xz  D:yz
 F:z3  F:z  F:xyz  F:z2x  F:z2y  F:x  F:y


 Configuration of Valence Electrons
 ==================================

          Occupation Numbers
          -------------------------------------------------
 S        2*2
 P        3
 D        0
 F        0
          -------------------------------------------------

 Total:   7

 Net Charge: 0 (Nuclei minus Electrons)

 Preset values for MO occupations will be applied through SCF cycle no. 1000000
 Thereafter, the program will assign electrons to MOs that are spatially
 similar to the occupied MOs in a "reference" cycle ("KeepOrbitals").
 The reference cycle is always the PREVIOUS cycle: it will evolve with
 the SCF procedure.



 ================================
 (Slater-type)  F U N C T I O N S  ***  (Basis and Fit)  ***
 ================================
  

 Atom Type    1  (N)
 ==============

 Valence Basis Sets:  10
 -----------------------
   1 S    8.740000
   1 S    5.900000
   2 S    5.150000
   2 S    2.500000
   2 S    1.500000
   2 P    3.680000
   2 P    1.880000
   2 P    1.000000
   3 D    2.200000
   4 F    3.300000


 BAS: List of all Elementary Cartesian Basis Functions
 =====================================================

 The numbering in the list below (to the right of the function characteristics) is referred
 to in print-outs of MO eigenvectors and Mulliken populations in the BAS representation
 (as contrasted to the SFO representation).

 Notes:
 1. The functions are characterized by a polynomial prefactor (powers of x,y,z and r) and
    an exponential decay factor alpha.
 2. Since the basis sets are specific for an atom TYPE, the individual functions occur on
    all atoms of that type.
 3. The word 'Core' in the left margin signals that it is a Core Function (CF) : not a
    degree of freedom in the valence set, but only used to ensure orthogonalization of
    the other valence basis functions on the frozen Core Orbitals.


 (power of) X  Y  Z  R     Alpha  on Atom
            ==========     =====     ==========

 N                                    1
                                  ---------------------------------------------------------------------------
            0  0  0  0     8.740      1
            0  0  0  0     5.900      2
            0  0  0  1     5.150      3
            0  0  0  1     2.500      4
            0  0  0  1     1.500      5
            1  0  0  0     3.680      6
            0  1  0  0     3.680      7
            0  0  1  0     3.680      8
            1  0  0  0     1.880      9
            0  1  0  0     1.880     10
            0  0  1  0     1.880     11
            1  0  0  0     1.000     12
            0  1  0  0     1.000     13
            0  0  1  0     1.000     14
            2  0  0  0     2.200     15
            1  1  0  0     2.200     16
            1  0  1  0     2.200     17
            0  2  0  0     2.200     18
            0  1  1  0     2.200     19
            0  0  2  0     2.200     20
            3  0  0  0     3.300     21
            2  1  0  0     3.300     22
            2  0  1  0     3.300     23
            1  2  0  0     3.300     24
            1  1  1  0     3.300     25
            1  0  2  0     3.300     26
            0  3  0  0     3.300     27
            0  2  1  0     3.300     28
            0  1  2  0     3.300     29
            0  0  3  0     3.300     30

 Total number of charge fitting functions (nprimf)        84
 Total number of Cartesian basis functions (naos)         30
 Total number of Cartesian core functions  (ncos)          0



 BAS: List of all Elementary Cartesian Basis Functions
 =====================================================

 The numbering in the list below (to the right of the function characteristics) is referred
 to in print-outs of MO eigenvectors and Mulliken populations in the BAS representation
 (as contrasted to the SFO representation).

 Notes:
 1. The functions are characterized by a polynomial prefactor (powers of x,y,z and r) and
    an exponential decay factor alpha.
 2. Since the basis sets are specific for an atom TYPE, the individual functions occur on
    all atoms of that type.
 3. The word 'Core' in the left margin signals that it is a Core Function (CF) : not a
    degree of freedom in the valence set, but only used to ensure orthogonalization of
    the other valence basis functions on the frozen Core Orbitals.


 (power of) X  Y  Z  R     Alpha  on Atom
            ==========     =====     ==========

 N                                    1
                                  ---------------------------------------------------------------------------
            0  0  0  0     8.740      1
            0  0  0  0     5.900      2
            0  0  0  1     5.150      3
            0  0  0  1     2.500      4
            0  0  0  1     1.500      5
            1  0  0  0     3.680      6
            0  1  0  0     3.680      7
            0  0  1  0     3.680      8
            1  0  0  0     1.880      9
            0  1  0  0     1.880     10
            0  0  1  0     1.880     11
            1  0  0  0     1.000     12
            0  1  0  0     1.000     13
            0  0  1  0     1.000     14
            2  0  0  0     2.200     15
            1  1  0  0     2.200     16
            1  0  1  0     2.200     17
            0  2  0  0     2.200     18
            0  1  1  0     2.200     19
            0  0  2  0     2.200     20
            3  0  0  0     3.300     21
            2  1  0  0     3.300     22
            2  0  1  0     3.300     23
            1  2  0  0     3.300     24
            1  1  1  0     3.300     25
            1  0  2  0     3.300     26
            0  3  0  0     3.300     27
            0  2  1  0     3.300     28
            0  1  2  0     3.300     29
            0  0  3  0     3.300     30
1
 ***************************************************************************************************



                                              ***********************
                                              *  T E C H N I C A L  *
                                              ***********************
  



 =============================================================
 P A R A L L E L I Z A T I O N  and  V E C T O R I Z A T I O N
 =============================================================
  
 Nr of parallel processes:                                1
 Maximum vector length in NumInt loops:                 128



 =====================
 S C F   U P D A T E S
 =====================
  
 Max. nr. of cycles:                               300
 Convergence criterion:                              0.0000000100
   secondary criterion:                              0.0000000100

 Mix parameter (when DIIS does not apply):           0.2000000000
 Special mix parameter for the first cycle:          1.0000000000
 Mixed ADIIS+SDIIS will be used                  
    Max number of expansion vectors:                10
    Pure ADIIS when Max([F,P]) is above              0.1000000000
    Pure SDIIS when Max([F,P]) is below              0.0010000000
 Automatic ElectronSmearing (in case of problematic SCF convergence) disabled



 =================
 P R E C I S I O N  ***  (General: NumInt, NeglectFunctionTails, ...)  ***
 =================
  

 NumInt:           Target precision:                12.0000000000
 -------           Initial precision:               10.0000000000
                   Min. precision (optimization):   10.0000000000

 Neglect Functions:          Basis functions:        0.1000000000E-13
 ------------------          Fit functions:          0.1000000000E-13



 ===========================
 L I N E A R   S C A L I N G
 ===========================
  

 Cut-off radii density fit:                        0.1000000000E-97
 Overlap cut-off criterion AO matrix elements:     0.1000000000E-97
 Cut-offs for Coulomb potential and fitted density:0.1000000000E-97
 Cut-off criterion for Coulomb multipole terms:    0.1000000000E-97
 Progressive Convergence parameter:                 0.000000000    
1
 ***************************************************************************************************



                                            ***************************
                                            *  C O M P U T A T I O N  *
                                            ***************************
  

 Number of elements of the density matrix on this node (used, total):       465       465



 ===========================================
 Numerical Integration : Fuzzy Cells (Becke)
 ===========================================
  
 Becke grid quality: VERYGOOD       
  
 Lebedev angular grid order:             min:  13 max:  41
 Nr. of radial points:                   min:  72 max:  72

 Total nr. of points:         72
 Nr. of blocks:                1
 Block length:                72
 Nr. of dummy points:          0


 Test of Precision of the Numerical Integration Grid
 ===================================================

 Integral of the Total Core Density:                   0.00000000000000



 ========================
 Density Fitting (zlmFit)
 ========================
  
 ZlmFit Fit Quality: VERYGOOD       
  
 Max L-expansion:                        min:   0 max:   0
 Nr. of radial interpolation points:     min: 160 max: 160



 =====
 S C F  ***  ScaSCF  ***
 =====
  

 CYCLE    1
 SCF Error: norm([F,P])=      0.000000000000, max([F,P])=      0.000000000000
 orbitals (Q,E):
 ---------------
 S :1...5            ( 2.00   -24.5085)  ( 2.00    -6.1038)  ( 0.00    -2.6609)  ( 0.00     0.7130)
                     ( 0.00    53.9524)
 P :1...3            ( 3.00    -6.1221)  ( 0.00    -2.6449)  ( 0.00    -1.4094)
 D :1...1            ( 0.00    -2.7133)
 F :1...1            ( 0.00    -0.3303)

 CYCLE    2
  SDIIS (wt  0.000):  1.0000  0.0000
 A-DIIS (wt  1.000):  0.0000  1.0000
  DIIS coefficients:  0.0000  1.0000
 SCF Error: norm([F,P])=      6.477200927757, max([F,P])=      4.240068106558
 orbitals (Q,E):
 ---------------
 S :1...3            ( 2.00   -10.8121)  ( 2.00    -0.0020)  ( 0.00     1.2159)
 P :1...2            ( 3.00     0.2049)  ( 0.00     0.9722)
 D :1...1            ( 0.00     1.8344)
 F :1...1            ( 0.00     4.7205)

 CYCLE    3
  SDIIS (wt  0.000):  0.2197  0.7803
 A-DIIS (wt  1.000):  0.2092  0.7908
  DIIS coefficients:  0.2092  0.7908
 SCF Error: norm([F,P])=      2.468008167944, max([F,P])=      1.948125474059
 orbitals (Q,E):
 ---------------
 S :1...3            ( 2.00   -15.1559)  ( 2.00    -1.2433)  ( 0.00     0.2076)
 P :1...2            ( 3.00    -0.8295)  ( 0.00     0.0832)
 D :1...1            ( 0.00     0.8020)
 F :1...1            ( 0.00     3.4981)

 CYCLE    4
  SDIIS (wt  0.000): -0.0644  0.1977  0.8667
 A-DIIS (wt  1.000):  0.0000  0.0505  0.9495
  DIIS coefficients:  0.0000  0.0505  0.9495
 SCF Error: norm([F,P])=      1.009799842415, max([F,P])=      0.662187780832
 orbitals (Q,E):
 ---------------
 S :1...3            ( 2.00   -13.4841)  ( 2.00    -0.4592)  ( 0.00     0.6722)
 P :1...2            ( 3.00    -0.0644)  ( 0.00     0.4231)
 D :1...1            ( 0.00     1.4156)
 F :1...1            ( 0.00     4.2100)

 CYCLE    5
  SDIIS (wt  0.000): -0.0248 -0.0769  0.4604  0.6412
 A-DIIS (wt  1.000):  0.0000  0.0000  0.4250  0.5750
  DIIS coefficients:  0.0000  0.0000  0.4250  0.5750
 SCF Error: norm([F,P])=      0.788461240439, max([F,P])=      0.542264435810
 orbitals (Q,E):
 ---------------
 S :1...3            ( 2.00   -14.2068)  ( 2.00    -0.7293)  ( 0.00     0.4914)
 P :1...2            ( 3.00    -0.3043)  ( 0.00     0.2675)
 D :1...1            ( 0.00     1.2034)
 F :1...1            ( 0.00     3.9589)

 CYCLE    6
  SDIIS (wt  0.481):  0.0018 -0.0078 -0.0289  0.0994  0.9355
 A-DIIS (wt  0.519):  0.0000  0.0000  0.0000  0.0000  1.0000
  DIIS coefficients:  0.0009 -0.0038 -0.0139  0.0479  0.9690
 SCF Error: norm([F,P])=      0.088872112622, max([F,P])=      0.052346041089
 orbitals (Q,E):
 ---------------
 S :1...3            ( 2.00   -14.0913)  ( 2.00    -0.6646)  ( 0.00     0.5325)
 P :1...2            ( 3.00    -0.2429)  ( 0.00     0.2953)
 D :1...1            ( 0.00     1.2570)
 F :1...1            ( 0.00     4.0201)

 CYCLE    7
  SDIIS (wt  0.635): -0.0003  0.0023  0.0240 -0.0632 -0.0598  1.0970
 A-DIIS (wt  0.365):  0.0000  0.0000  0.0000  0.0000  0.2257  0.7743
  DIIS coefficients: -0.0002  0.0014  0.0152 -0.0401  0.0444  0.9793
 SCF Error: norm([F,P])=      0.055954929761, max([F,P])=      0.037126003263
 orbitals (Q,E):
 ---------------
 S :1...3            ( 2.00   -14.1439)  ( 2.00    -0.6864)  ( 0.00     0.5189)
 P :1...2            ( 3.00    -0.2636)  ( 0.00     0.2849)
 D :1...1            ( 0.00     1.2402)
 F :1...1            ( 0.00     4.0004)

 CYCLE    8
  SDIIS (wt  0.953): -0.0001  0.0002  0.0015 -0.0040  0.0045  0.1948  0.8031
 A-DIIS (wt  0.047):  0.0000  0.0000  0.0000  0.0000  0.0000  0.0000  1.0000
  DIIS coefficients: -0.0001  0.0002  0.0014 -0.0038  0.0042  0.1856  0.8124
 SCF Error: norm([F,P])=      0.008366940851, max([F,P])=      0.005695204848
 orbitals (Q,E):
 ---------------
 S :1...3            ( 2.00   -14.1366)  ( 2.00    -0.6836)  ( 0.00     0.5207)
 P :1...2            ( 3.00    -0.2609)  ( 0.00     0.2862)
 D :1...1            ( 0.00     1.2423)
 F :1...1            ( 0.00     4.0029)

 CYCLE    9
  SDIIS (wt  1.000):  0.0000  0.0000  0.0000  0.0001  0.0001 -0.0061  0.0077  0.9982
  DIIS coefficients:  0.0000  0.0000  0.0000  0.0001  0.0001 -0.0061  0.0077  0.9982
 SCF Error: norm([F,P])=      0.000344394467, max([F,P])=      0.000230234214
 orbitals (Q,E):
 ---------------
 S :1...3            ( 2.00   -14.1369)  ( 2.00    -0.6837)  ( 0.00     0.5206)
 P :1...2            ( 3.00    -0.2610)  ( 0.00     0.2861)
 D :1...1            ( 0.00     1.2422)
 F :1...1            ( 0.00     4.0028)

 CYCLE   10
  SDIIS (wt  1.000):  0.0000  0.0000  0.0000  0.0000 -0.0004 -0.0015  0.0203  0.9816
  DIIS coefficients:  0.0000  0.0000  0.0000  0.0000 -0.0004 -0.0015  0.0203  0.9816
 SCF Error: norm([F,P])=      0.000004011399, max([F,P])=      0.000002381476
 orbitals (Q,E):
 ---------------
 S :1...3            ( 2.00   -14.1369)  ( 2.00    -0.6837)  ( 0.00     0.5206)
 P :1...2            ( 3.00    -0.2610)  ( 0.00     0.2861)
 D :1...1            ( 0.00     1.2422)
 F :1...1            ( 0.00     4.0028)

 CYCLE   11
  SDIIS (wt  1.000):  0.0000  0.0000  0.0000 -0.0074  1.0073
  DIIS coefficients:  0.0000  0.0000  0.0000 -0.0074  1.0073
 SCF Error: norm([F,P])=      0.000000036346, max([F,P])=      0.000000024195
 orbitals (Q,E):
 ---------------
 S :1...3            ( 2.00   -14.1369)  ( 2.00    -0.6837)  ( 0.00     0.5206)
 P :1...2            ( 3.00    -0.2610)  ( 0.00     0.2861)
 D :1...1            ( 0.00     1.2422)
 F :1...1            ( 0.00     4.0028)

 CYCLE   12
  SDIIS (wt  1.000):  0.0000 -0.0002 -0.0049  1.0051
  DIIS coefficients:  0.0000 -0.0002 -0.0049  1.0051
 SCF Error: norm([F,P])=      0.000000000633, max([F,P])=      0.000000000378
 orbitals (Q,E):
 ---------------
 S :1...3            ( 2.00   -14.1369)  ( 2.00    -0.6837)  ( 0.00     0.5206)
 P :1...2            ( 3.00    -0.2610)  ( 0.00     0.2861)
 D :1...1            ( 0.00     1.2422)
 F :1...1            ( 0.00     4.0028)

 SCF CONVERGED

 CYCLE   13
1
 ***************************************************************************************************



                                                *******************
                                                *  R E S U L T S  *
                                                *******************
  
 *** Using FIT density in Focky
  SDIIS (wt  1.000):  0.0000  0.0001  0.0111  0.9888
  DIIS coefficients:  0.0000  0.0001  0.0111  0.9888
 SCF Error: norm([F,P])=      0.000000000015, max([F,P])=      0.000000000009

 Scaled ZORA Orbital Energies, per Irrep and Spin:
 =================================================
                        Occup              E (au)              E (eV)       Diff (eV) with prev. cycle
                        -----      --------------------        ------       --------------------------
 S
               1        2.000     -0.14136927494044E+02      -384.685              -2.89E-10
               2        2.000     -0.68367719482847E+00       -18.604              -1.81E-10
               3        0.000      0.52058229608723E+00        14.166
               4        0.000      0.68938411499464E+01       187.591
               5        0.000      0.63487931372505E+02      1727.595
 P
               1        3.000     -0.26097654586035E+00        -7.102              -1.71E-10
               2        0.000      0.28609946376341E+00         7.785
               3        0.000      0.32911701729664E+01        89.557
 D
               1        0.000      0.12422463442215E+01        33.803
 F
               1        0.000      0.40028176767591E+01       108.922


 Partially Occupied:
               1 P                -0.26097654586035E+00
  
 HOMO :        2 S                -0.68367719482847E+00
 LUMO :        2 P                 0.28609946376341E+00
  


 Orbital Energies, all Irreps
 ========================================

 Irrep        no.  (spin)   Occup              E (au)                E (eV)
 ---------------------------------------------------------------------------
 S             1             2.00       -0.14136927494044E+02      -384.6854
 S             2             2.00       -0.68367719482847E+00       -18.6038
 P             1             3.00       -0.26097654586035E+00        -7.1015
 P             2             0.00        0.28609946376341E+00         7.7852
 S             3             0.00        0.52058229608723E+00        14.1658
 D             1             0.00        0.12422463442215E+01        33.8032
 P             3             0.00        0.32911701729664E+01        89.5573
 F             1             0.00        0.40028176767591E+01       108.9222
 S             4             0.00        0.68938411499464E+01       187.5910
 S             5             0.00        0.63487931372505E+02      1727.5945


 All Electron Calculation, thus no Orbital Energies of the Core Orbitals are calculated



 =======================================
 M U L L I K E N   P O P U L A T I O N S
 =======================================
  
 The survey below gives for each atom:
 a) the total charge (Z minus electrons)
 b) the net spin polarization (nr of electrons spin-A minus spin-B)
 c) for each spin the atomic electron valence density (integrated) per L-value.

 Atom              Charge    Spin density          S         P         D         F
 ----              ------    ------------       ------    ------    ------    ------
 1 N               0.0000                       4.0000    3.0000    0.0000    0.0000

 Populations of individual BAS functions
 ----------------------------------------
 1 N            0.5385  1.4480 -0.0461  1.1687  0.8909  0.1406  0.1406  0.1406  0.5648  0.5648
                0.5648  0.2945  0.2945  0.2945  0.0000  0.0000  0.0000  0.0000  0.0000  0.0000
                0.0000  0.0000  0.0000  0.0000  0.0000  0.0000  0.0000  0.0000  0.0000  0.0000

 Gross Charges per Atom (Z minus electrons)
 ==========================================
             0.0000
 Net Total:  0.00000000



 =======================================================================
 Electrostatic potential at the Nuclei due to electrons and other nuclei
 =======================================================================
  
         Atom                  Potential
         ----                  ---------
     1)   N                  18.30396531
 
 
 ========================
 No memory problems found
 ========================
 
 Maximum number of active allocate calls:         474
 
 *******************************************************************************

                             A D F   E X I T
 NORMAL TERMINATION



 =================
 Timing Statistics
 =================
  
 Total Used :                     CPU=        0.75      System=        0.06     Elapsed=        1.05

 Calls  Section                     ( Mean, Percentage )
 ---------------------------------------------------------------------------------------------------
     3  ><      ................      0.01    2.08             0.00    0.00             0.01    2.00
     1  INIT    ................      0.11   14.58             0.00    0.00             0.12   11.44
     1  GEOMET  ................      0.02    2.08             0.02   25.00             0.04    3.81
     1  INPUTA  ................      0.02    2.08             0.00    0.00             0.01    0.48
     1  MAINSY  ................      0.02    2.08             0.00    0.00             0.03    3.24
     1  SYMFIT  ................      0.00    0.00             0.00    0.00             0.00    0.00
     1  CORORT  ................      0.00    0.00             0.00    0.00             0.01    0.95
     1  SYMORB  ................      0.00    0.00             0.00    0.00             0.00    0.00
     1  CLSMAT  ................      0.02    2.08             0.00    0.00             0.02    2.00
     1  ORTHON  ................      0.00    0.00             0.00    0.00             0.01    0.95
     1  GENPT   ................      0.03    4.17             0.02   25.00             0.03    3.24
     1  PTBAS   ................      0.00    0.00             0.00    0.00             0.02    1.53
    13  FOCKY   ................      0.04   64.58             0.00    0.00             0.04   49.29
    13  FOCKTR  ................      0.00    0.00             0.00    0.00             0.00    0.67
    13  SDIIS   ................      0.00    0.00             0.00   25.00             0.01   12.49
     1  COREPS  ................      0.03    4.17             0.00    0.00             0.03    2.96
     1  POPAN   ................      0.02    2.08             0.00    0.00             0.02    1.53
     1  DEBYE   ................      0.00    0.00             0.00    0.00             0.01    0.76
     1  EXIT PROCEDURE .........      0.00    0.00             0.02   25.00             0.03    2.67


 Currently Open Files (EXIT00)
 ====================

 Unit    Access Format  Status   Type       Ident (file)
 -------------------------------------------------------
   3      SEQ    FORM   TRANSP  NORMAL      LOGFILE
                                          ( logfile )

 ***************************************************************************************************
 (LOGFILE)
 <Apr01-2020> <20:28:30>  DIRAC 2019.303  RunTime: Apr01-2020 20:28:30  Nodes: 1  Procs: 1
 <Apr01-2020> <20:28:31>  NORMAL TERMINATION
 <Apr01-2020> <20:28:31>  END
 <Apr01-2020> <20:28:31>  ADF 2019.303  RunTime: Apr01-2020 20:28:31  Nodes: 1  Procs: 1
 <Apr01-2020> <20:28:31>  Hydrogen (TZ2P)
 <Apr01-2020> <20:28:31>  RunType   : CREATE
 <Apr01-2020> <20:28:31>  Net Charge: 0 (Nuclei minus Electrons)
 <Apr01-2020> <20:28:31>  Symmetry  : ATOM
  Coordinates
    Atom         X           Y           Z   (Angstrom)
    1.H         0.000000    0.000000    0.000000
 <Apr01-2020> <20:28:31>  >>>> CORORT
 <Apr01-2020> <20:28:31>  >>>> CLSMAT
 <Apr01-2020> <20:28:31>  >>>> ORTHON
 <Apr01-2020> <20:28:31>  >>>> GENPT
 <Apr01-2020> <20:28:31>  Block Length=  64
 <Apr01-2020> <20:28:31>  >>>> PTBAS
 <Apr01-2020> <20:28:31>  >>>> CYCLE
 <Apr01-2020> <20:28:31>              |Error|         MaxErr       Wt(A-DIIS)
 <Apr01-2020> <20:28:31>      1      0.00000000      0.00000000
 <Apr01-2020> <20:28:31>      2      0.03155047      0.03012130
 <Apr01-2020> <20:28:31>      3      0.00862036      0.00834572    100.0
 <Apr01-2020> <20:28:31>      4      0.00173320      0.00171953      0.7
 <Apr01-2020> <20:28:31>      5      0.00004372      0.00003982      0.0
 <Apr01-2020> <20:28:31>      6      0.00000239      0.00000216      0.0
 <Apr01-2020> <20:28:31>      7      0.00000001      0.00000001      0.0
 <Apr01-2020> <20:28:31>  SCF converged
 <Apr01-2020> <20:28:31>      8      0.00000000      0.00000000      0.0
 <Apr01-2020> <20:28:31>  >>>> POPAN
 <Apr01-2020> <20:28:31>  >>>> DEBYE
 <Apr01-2020> <20:28:32>  NORMAL TERMINATION
 <Apr01-2020> <20:28:32>  END
 <Apr01-2020> <20:28:32>  DIRAC 2019.303  RunTime: Apr01-2020 20:28:32  Nodes: 1  Procs: 1
 <Apr01-2020> <20:28:32>  NORMAL TERMINATION
 <Apr01-2020> <20:28:32>  END
 <Apr01-2020> <20:28:32>  ADF 2019.303  RunTime: Apr01-2020 20:28:32  Nodes: 1  Procs: 1
 <Apr01-2020> <20:28:32>  Nitrogen (TZ2P)
 <Apr01-2020> <20:28:32>  RunType   : CREATE
 <Apr01-2020> <20:28:32>  Net Charge: 0 (Nuclei minus Electrons)
 <Apr01-2020> <20:28:32>  Symmetry  : ATOM
  Coordinates
    Atom         X           Y           Z   (Angstrom)
    1.N         0.000000    0.000000    0.000000
 <Apr01-2020> <20:28:32>  >>>> CORORT
 <Apr01-2020> <20:28:32>  >>>> CLSMAT
 <Apr01-2020> <20:28:32>  >>>> ORTHON
 <Apr01-2020> <20:28:32>  >>>> GENPT
 <Apr01-2020> <20:28:32>  Block Length=  72
 <Apr01-2020> <20:28:32>  >>>> PTBAS
 <Apr01-2020> <20:28:32>  >>>> CYCLE
 <Apr01-2020> <20:28:32>              |Error|         MaxErr       Wt(A-DIIS)
 <Apr01-2020> <20:28:32>      1      0.00000000      0.00000000
 <Apr01-2020> <20:28:33>      2      6.47720093      4.24006811    100.0
 <Apr01-2020> <20:28:33>      3      2.46800817      1.94812547    100.0
 <Apr01-2020> <20:28:33>      4      1.00979984      0.66218778    100.0
 <Apr01-2020> <20:28:33>      5      0.78846124      0.54226444    100.0
 <Apr01-2020> <20:28:33>      6      0.08887211      0.05234604     51.9
 <Apr01-2020> <20:28:33>      7      0.05595493      0.03712600     36.5
 <Apr01-2020> <20:28:33>      8      0.00836694      0.00569520      4.7
 <Apr01-2020> <20:28:33>      9      0.00034439      0.00023023      0.0
 <Apr01-2020> <20:28:33>     10      0.00000401      0.00000238      0.0
 <Apr01-2020> <20:28:33>     11      0.00000004      0.00000002      0.0
 <Apr01-2020> <20:28:33>     12      0.00000000      0.00000000      0.0
 <Apr01-2020> <20:28:33>  SCF converged
 <Apr01-2020> <20:28:33>     13      0.00000000      0.00000000      0.0
 <Apr01-2020> <20:28:33>  >>>> POPAN
 <Apr01-2020> <20:28:33>  >>>> DEBYE
 <Apr01-2020> <20:28:33>  NORMAL TERMINATION
 <Apr01-2020> <20:28:33>  END

 *******************************************************************************
 *                                                                             *
 *  --------------------------------                                           *
 *   Amsterdam Modeling Suite (AMS)              2019.303                      *
 *  --------------------------------                                           *
 *                                               r81909 2020-02-21             *
 *                                                                             *
 *                                                                             *
 *                            =====================                            *
 *                            |                   |                            *
 *                            |     D I R A C     |                            *
 *                            |                   |                            *
 *                            =====================                            *
 *                                                                             *
 *                                                                             *
 *   Online information and documentation:  https://www.scm.com/support/       *
 *   E-mail:  support@scm.com   info@scm.com                                   *
 *                                                                             *
 *   Scientific publications using AMS results must be properly referenced     *
 *   See the User Manuals (or the web site) for recommended citations          *
 *   The terms and conditions of the End User License Agreement apply to       *
 *   the use of AMS, https://www.scm.com/license-terms/                        *
 *                                                                             *
 *********************  x86_64_windows_intel / intelmpi  ***********************
 
 Licensed to: Student project account / Theoretische chemie, Vrije Universiteit / Amsterdam / NETHERLANDS
 SCM User ID: u20153
  
 DIRAC 2019.303  RunTime: Apr01-2020 20:28:33  Nodes: 1  Procs: 1

 Temporary files are created in D:\SCMTMP\/kid_0.1165199014
1
 CARBON ATOM all electron RELATIVISTIC, Point Nuc, A and c fr
 N J RN H ZN XION ANUC CLIGHT
 5000    4100.00000000197.36710137  6.00000000  0.00000000   12.000000  0.1370360E+03
  PH   PHI     EPS        DEL        DELRVR
  0.30  0.30     2500.00  0.00001000  0.00001000
 IDIRC  NC1  NDEBU NPRIN  IPUN IRCOR IWCOR
   1   300     0     0     0     0     0
   XALPHA      XLATTER      RNUC
  0.70000000  0.00000000  0.00000000 Point Charge
   XN   XL   XJ      XE          XZ      XDELL
  1.0  0.0  0.5      -5.000       2.000     0.00000
  2.0  0.0  0.5      -1.000       2.000     0.00000
  2.0  1.0  0.5      -1.000       2.000     0.00000
  2.0  1.0  1.5      -1.000       0.000     0.00000
 ICORP=  0  NPCL=  0  DEMP=0.00  PEPS=0.000000
 R(1)=  0.1000000E-08 D=  0.1005080E+01 RNUC=  0.0000000E+00
 converged at cycle   26  DENSITY AVERAGING    0.3000
  MAXIMUM ERROR IN R.V(R) IS   0.55010513E-05
 Q,EY,EV,EZ,ESUM,ETOT,RHO  0.600000E+01 -0.610129E+01 -0.585189E+02 -0.876464E+02 -0.211985E+02 -0.372876E+02  0.164808E-14


 DIRAC CALCULATION
1                    CARBON ATOM all electron RELATIVISTIC, Point Nuc, A and c from libtc


 EXCHANGE COEFFICIENT=  0.7000000           TAIL CORRECTION=  0.           NUCLEAR RADIUS=  0.000E+00
0                       ORBITAL    N    L    J     ELECTRONS     EIGENVALUE                DELTA OF EIGENV.

                          1S1/2  1.0  0.0  0.5     2.000       -0.9959611E+01                 0.1355092E-04
                          2S1/2  2.0  0.0  0.5     2.000       -0.4708542E+00                 0.1106918E-05
                          2P1/2  2.0  1.0  0.5     2.000       -0.1687896E+00                 0.8770186E-06
                          2P3/2  2.0  1.0  1.5     0.000       -0.1684646E+00                 0.8770830E-06


                                        NUCLEAR CHARGE=    6.000000
                            INTEGRAL OF CHARGE DENSITY=    6.000000
                           SUM OF THE ORBITAL ENERGIES=    -21.1985
                                          TOTAL ENERGY=    -37.2876
                                        KINETIC ENERGY=     37.3204
                             NUCLEAR ATTRACTION ENERGY=    -87.6464
                             ELECTRON REPULSION ENERGY=     17.6144
                                       EXCHANGE ENERGY=     -4.5760

 *******************************************************************************

                             D I R A C   E X I T
 NORMAL TERMINATION



 =================
 Timing Statistics
 =================
  
 Total Used :                     CPU=        0.11      System=        0.02     Elapsed=        0.16

 Calls  Section                     ( Mean, Percentage )
 ---------------------------------------------------------------------------------------------------
     2  ><      ................      0.00    0.00             0.00    0.00             0.00    0.00
     1  EXIT PROCEDURE .........      0.11  100.00             0.02  100.00             0.16  100.00


 Currently Open Files (EXIT00)
 ====================

 Unit    Access Format  Status   Type       Ident (file)
 -------------------------------------------------------
   3      SEQ    FORM   TRANSP  NORMAL      LOGFILE
                                          ( logfile )
 
Create C   file=TZ2P-C
XC
  GGA PBE
End
relativistic ZORA
Corepotentials t12.rel
End

 *******************************************************************************
 *                                                                             *
 *  --------------------------------                                           *
 *   Amsterdam Modeling Suite (AMS)              2019.303                      *
 *  --------------------------------                                           *
 *                                               r81909 2020-02-21             *
 *                                                                             *
 *                                                                             *
 *                              =================                              *
 *                              |               |                              *
 *                              |     A D F     |                              *
 *                              |               |                              *
 *                              =================                              *
 *                                                                             *
 *                                                                             *
 *   Online information and documentation:  https://www.scm.com/support/       *
 *   E-mail:  support@scm.com   info@scm.com                                   *
 *                                                                             *
 *   Scientific publications using AMS results must be properly referenced     *
 *   See the User Manuals (or the web site) for recommended citations          *
 *   The terms and conditions of the End User License Agreement apply to       *
 *   the use of AMS, https://www.scm.com/license-terms/                        *
 *                                                                             *
 *********************  x86_64_windows_intel / intelmpi  ***********************
 
 Licensed to: Student project account / Theoretische chemie, Vrije Universiteit / Amsterdam / NETHERLANDS
 SCM User ID: u20153
  
 ADF 2019.303  RunTime: Apr01-2020 20:28:34  Nodes: 1  Procs: 1

 Temporary files are created in D:\SCMTMP\/kid_0.1423408654
 Carbon (TZ2P)



 ===========================
 A T T A C H E D   F I L E S
 ===========================
  
 CREATE - Data File:    TZ2P-C
                        Carbon (TZ2P)
 Core Potentials:
         file : t12.rel



 ===============================
 M O D E L   P A R A M E T E R S
 ===============================
  
 DENSITY FUNCTIONAL POTENTIAL (scf)
    LDA:                               PW92                                    == Not Default ==
    Gradient Corrections:              PBEc PBEx                               == Not Default ==

 SPIN  (restricted / unrestr.)
    Molecule:                          Restricted                               

 OTHER ASPECTS
    Relativistic Corrections:          scalar (ZORA,MAPA)                      == Not Default ==

    Nuclear Charge Density Model:      Point Charge Nuclei                      
    Core Treatment:                    Frozen Orbital(s)                        

    Hyperfine or Zeeman Interaction:   ---                                      



 =====================================
 S Y M M E T R Y ,   E L E C T R O N S
 =====================================
  
 Symmetry: ATOM

 Irreducible Representations, including subspecies
 -------------------------------------------------
 S
 P:x  P:y  P:z
 D:z2  D:x2-y2  D:xy  D:xz  D:yz
 F:z3  F:z  F:xyz  F:z2x  F:z2y  F:x  F:y


 Configuration of Valence Electrons
 ==================================

          Occupation Numbers
          -------------------------------------------------
 S        2*2
 P        2
 D        0
 F        0
          -------------------------------------------------

 Total:   6

 Net Charge: 0 (Nuclei minus Electrons)

 Preset values for MO occupations will be applied through SCF cycle no. 1000000
 Thereafter, the program will assign electrons to MOs that are spatially
 similar to the occupied MOs in a "reference" cycle ("KeepOrbitals").
 The reference cycle is always the PREVIOUS cycle: it will evolve with
 the SCF procedure.



 ================================
 (Slater-type)  F U N C T I O N S  ***  (Basis and Fit)  ***
 ================================
  

 Atom Type    1  (C)
 ==============

 Valence Basis Sets:  10
 -----------------------
   1 S    7.680000
   1 S    5.000000
   2 S    1.280000
   2 S    2.100000
   2 S    4.600000
   2 P    0.820000
   2 P    1.480000
   2 P    2.940000
   3 D    2.200000
   4 F    3.300000


 BAS: List of all Elementary Cartesian Basis Functions
 =====================================================

 The numbering in the list below (to the right of the function characteristics) is referred
 to in print-outs of MO eigenvectors and Mulliken populations in the BAS representation
 (as contrasted to the SFO representation).

 Notes:
 1. The functions are characterized by a polynomial prefactor (powers of x,y,z and r) and
    an exponential decay factor alpha.
 2. Since the basis sets are specific for an atom TYPE, the individual functions occur on
    all atoms of that type.
 3. The word 'Core' in the left margin signals that it is a Core Function (CF) : not a
    degree of freedom in the valence set, but only used to ensure orthogonalization of
    the other valence basis functions on the frozen Core Orbitals.


 (power of) X  Y  Z  R     Alpha  on Atom
            ==========     =====     ==========

 C                                    1
                                  ---------------------------------------------------------------------------
            0  0  0  0     7.680      1
            0  0  0  0     5.000      2
            0  0  0  1     1.280      3
            0  0  0  1     2.100      4
            0  0  0  1     4.600      5
            1  0  0  0     0.820      6
            0  1  0  0     0.820      7
            0  0  1  0     0.820      8
            1  0  0  0     1.480      9
            0  1  0  0     1.480     10
            0  0  1  0     1.480     11
            1  0  0  0     2.940     12
            0  1  0  0     2.940     13
            0  0  1  0     2.940     14
            2  0  0  0     2.200     15
            1  1  0  0     2.200     16
            1  0  1  0     2.200     17
            0  2  0  0     2.200     18
            0  1  1  0     2.200     19
            0  0  2  0     2.200     20
            3  0  0  0     3.300     21
            2  1  0  0     3.300     22
            2  0  1  0     3.300     23
            1  2  0  0     3.300     24
            1  1  1  0     3.300     25
            1  0  2  0     3.300     26
            0  3  0  0     3.300     27
            0  2  1  0     3.300     28
            0  1  2  0     3.300     29
            0  0  3  0     3.300     30

 Total number of charge fitting functions (nprimf)        84
 Total number of Cartesian basis functions (naos)         30
 Total number of Cartesian core functions  (ncos)          0



 BAS: List of all Elementary Cartesian Basis Functions
 =====================================================

 The numbering in the list below (to the right of the function characteristics) is referred
 to in print-outs of MO eigenvectors and Mulliken populations in the BAS representation
 (as contrasted to the SFO representation).

 Notes:
 1. The functions are characterized by a polynomial prefactor (powers of x,y,z and r) and
    an exponential decay factor alpha.
 2. Since the basis sets are specific for an atom TYPE, the individual functions occur on
    all atoms of that type.
 3. The word 'Core' in the left margin signals that it is a Core Function (CF) : not a
    degree of freedom in the valence set, but only used to ensure orthogonalization of
    the other valence basis functions on the frozen Core Orbitals.


 (power of) X  Y  Z  R     Alpha  on Atom
            ==========     =====     ==========

 C                                    1
                                  ---------------------------------------------------------------------------
            0  0  0  0     7.680      1
            0  0  0  0     5.000      2
            0  0  0  1     1.280      3
            0  0  0  1     2.100      4
            0  0  0  1     4.600      5
            1  0  0  0     0.820      6
            0  1  0  0     0.820      7
            0  0  1  0     0.820      8
            1  0  0  0     1.480      9
            0  1  0  0     1.480     10
            0  0  1  0     1.480     11
            1  0  0  0     2.940     12
            0  1  0  0     2.940     13
            0  0  1  0     2.940     14
            2  0  0  0     2.200     15
            1  1  0  0     2.200     16
            1  0  1  0     2.200     17
            0  2  0  0     2.200     18
            0  1  1  0     2.200     19
            0  0  2  0     2.200     20
            3  0  0  0     3.300     21
            2  1  0  0     3.300     22
            2  0  1  0     3.300     23
            1  2  0  0     3.300     24
            1  1  1  0     3.300     25
            1  0  2  0     3.300     26
            0  3  0  0     3.300     27
            0  2  1  0     3.300     28
            0  1  2  0     3.300     29
            0  0  3  0     3.300     30
1
 ***************************************************************************************************



                                              ***********************
                                              *  T E C H N I C A L  *
                                              ***********************
  



 =============================================================
 P A R A L L E L I Z A T I O N  and  V E C T O R I Z A T I O N
 =============================================================
  
 Nr of parallel processes:                                1
 Maximum vector length in NumInt loops:                 128



 =====================
 S C F   U P D A T E S
 =====================
  
 Max. nr. of cycles:                               300
 Convergence criterion:                              0.0000000100
   secondary criterion:                              0.0000000100

 Mix parameter (when DIIS does not apply):           0.2000000000
 Special mix parameter for the first cycle:          1.0000000000
 Mixed ADIIS+SDIIS will be used                  
    Max number of expansion vectors:                10
    Pure ADIIS when Max([F,P]) is above              0.1000000000
    Pure SDIIS when Max([F,P]) is below              0.0010000000
 Automatic ElectronSmearing (in case of problematic SCF convergence) disabled



 =================
 P R E C I S I O N  ***  (General: NumInt, NeglectFunctionTails, ...)  ***
 =================
  

 NumInt:           Target precision:                12.0000000000
 -------           Initial precision:               10.0000000000
                   Min. precision (optimization):   10.0000000000

 Neglect Functions:          Basis functions:        0.1000000000E-13
 ------------------          Fit functions:          0.1000000000E-13



 ===========================
 L I N E A R   S C A L I N G
 ===========================
  

 Cut-off radii density fit:                        0.1000000000E-97
 Overlap cut-off criterion AO matrix elements:     0.1000000000E-97
 Cut-offs for Coulomb potential and fitted density:0.1000000000E-97
 Cut-off criterion for Coulomb multipole terms:    0.1000000000E-97
 Progressive Convergence parameter:                 0.000000000    
1
 ***************************************************************************************************



                                            ***************************
                                            *  C O M P U T A T I O N  *
                                            ***************************
  

 Number of elements of the density matrix on this node (used, total):       465       465



 ===========================================
 Numerical Integration : Fuzzy Cells (Becke)
 ===========================================
  
 Becke grid quality: VERYGOOD       
  
 Lebedev angular grid order:             min:  13 max:  41
[...]
    12 H      -2.659034    2.621995   -1.530489      -1.407100    1.387500   -0.809900     34      35      36
    13 H       4.547059   -1.765193    0.084471       2.406200   -0.934100    0.044700     37      38      39
 --------------------------------------------------------------------------------------------------------------
1
 ***************************************************************************************************



                                              ***********************
                                              *  T E C H N I C A L  *
                                              ***********************
  



 =============================================================
 P A R A L L E L I Z A T I O N  and  V E C T O R I Z A T I O N
 =============================================================
  
 Nr of parallel processes:                                4
 Maximum vector length in NumInt loops:                 128



 ===============================
 G E O M E T R Y   U P D A T E S
 ===============================
  
 Optimization coordinates:                       Delocalized
 Optimization code branch:                       NEW
 Hessian update method:                          BFGS (Broyden-Fletcher-Goldfarb-Shanno)

 Iterative Geometry Improvements:
    Max. nr. of iterations:                         78
    Convergence criteria:
         Change in energy (hartree):                 0.0010000000
         Gradients (au/Angstrom):                    0.0010000000
         Cart/bondlength changes (Angstrom):         0.0100000000
    Max. step to take:
         Trust Radius:                               0.2000000000

 GDIIS (Geometry Direct Inversion in Iteration Space):
    First geometry cycle:                            0
    Max. number expansion vectors:                   5



 =====================
 S C F   U P D A T E S
 =====================
  
 Max. nr. of cycles:                               300
 Convergence criterion:                              0.0000010000
   secondary criterion:                              0.0010000000

 Mix parameter (when DIIS does not apply):           0.2000000000
 Mixed ADIIS+SDIIS will be used                  
    Max number of expansion vectors:                10
    Pure ADIIS when Max([F,P]) is above              0.1000000000
    Pure SDIIS when Max([F,P]) is below              0.0010000000



 =================
 P R E C I S I O N  ***  (General: NumInt, NeglectFunctionTails, ...)  ***
 =================
  

 NumInt:           Target precision:                10.0000000000
 -------           Initial precision:               10.0000000000
                   Min. precision (optimization):   10.0000000000

 Neglect Functions:          Basis functions:        0.1000000000E-11
 ------------------          Fit functions:          0.1000000000E-11



 ===========================
 L I N E A R   S C A L I N G
 ===========================
  

 Cut-off radii density fit:                        0.1000000000E-13
 Overlap cut-off criterion AO matrix elements:     0.1000000000E-11
 Cut-offs for Coulomb potential and fitted density:0.1000000000E-13
 Cut-off criterion for Coulomb multipole terms:    0.1000000000E-13
 Progressive Convergence parameter:                 0.000000000    
1
 ***************************************************************************************************



                                            ***************************
                                            *  C O M P U T A T I O N  *
                                            ***************************
  

 Number of elements of the density matrix on this node (used, total):      9318     34980



 ===========================================
 Numerical Integration : Fuzzy Cells (Becke)
 ===========================================
  
 Becke grid quality: EXCELLENT      
  
 Lebedev angular grid order:             min:  17 max:  47
 Nr. of radial points:                   min: 100 max: 114

 Total nr. of points:     641286
 Nr. of blocks:             5011
 Block length:               128
 Nr. of dummy points:        122


 Test of Precision of the Numerical Integration Grid
 ===================================================

 Integral of the Total Core Density:                   0.00000000000000



 ========================
 Density Fitting (zlmFit)
 ========================
  
 ZlmFit Fit Quality: EXCELLENT      
  
 Max L-expansion:                        min:  14 max:  15
 Nr. of radial interpolation points:     min: 182 max: 252



 =====
 S C F  ***  ScaSCF  ***
 =====
  
 Initial density matrix is calculated as sum of fragments

 CYCLE    1
 SCF Error: norm([F,P])=      6.070145458952, max([F,P])=      1.023965145202
 orbitals (Q,E):
 ---------------
 A :15...34          ( 2.00    -0.5796)  ( 2.00    -0.5720)  ( 2.00    -0.5567)  ( 2.00    -0.5282)
                     ( 2.00    -0.5185)  ( 2.00    -0.4952)  ( 2.00    -0.4802)  ( 2.00    -0.4275)
                     ( 2.00    -0.4026)  ( 2.00    -0.4016)  ( 0.00    -0.1600)  ( 0.00    -0.0746)
                     ( 0.00    -0.0557)  ( 0.00    -0.0358)  ( 0.00    -0.0311)  ( 0.00    -0.0180)
                     ( 0.00    -0.0075)  ( 0.00     0.0140)  ( 0.00     0.0250)  ( 0.00     0.0299)

 CYCLE    2
   MIX coefficients:  0.8000  0.2000
 SCF Error: norm([F,P])=      1.250733385727, max([F,P])=      0.193516792710
 orbitals (Q,E):
 ---------------
 A :15...25          ( 2.00    -0.5155)  ( 2.00    -0.5025)  ( 2.00    -0.4919)  ( 2.00    -0.4660)
                     ( 2.00    -0.4623)  ( 2.00    -0.4376)  ( 2.00    -0.4243)  ( 2.00    -0.3672)
                     ( 2.00    -0.3307)  ( 2.00    -0.3169)  ( 0.00    -0.1191)

 CYCLE    3
  SDIIS (wt  0.000): -0.7578  1.7578
 A-DIIS (wt  1.000):  0.0000  1.0000
  DIIS coefficients:  0.0000  1.0000
 SCF Error: norm([F,P])=      0.591895929963, max([F,P])=      0.087112684712
 orbitals (Q,E):
 ---------------
 A :15...25          ( 2.00    -0.3487)  ( 2.00    -0.3217)  ( 2.00    -0.3076)  ( 2.00    -0.2918)
                     ( 2.00    -0.2767)  ( 2.00    -0.2640)  ( 2.00    -0.2567)  ( 2.00    -0.2133)
                     ( 2.00    -0.1549)  ( 2.00    -0.1007)  ( 0.00    -0.0028)

 CYCLE    4
  SDIIS (wt  0.000):  0.2101  0.3447  0.4452
 A-DIIS (wt  1.000):  0.0000  0.7038  0.2962
  DIIS coefficients:  0.0000  0.7038  0.2962
 SCF Error: norm([F,P])=      1.036361535772, max([F,P])=      0.155741156907
 orbitals (Q,E):
 ---------------
 A :15...25          ( 2.00    -0.3999)  ( 2.00    -0.3875)  ( 2.00    -0.3731)  ( 2.00    -0.3484)
                     ( 2.00    -0.3441)  ( 2.00    -0.3210)  ( 2.00    -0.3081)  ( 2.00    -0.2739)
                     ( 2.00    -0.2248)  ( 2.00    -0.1880)  ( 0.00    -0.0339)

 CYCLE    5
  SDIIS (wt  0.692): -0.0787  0.4392  0.0659  0.5736
 A-DIIS (wt  0.308):  0.0000  0.0280  0.0000  0.9720
  DIIS coefficients: -0.0545  0.3126  0.0456  0.6963
 SCF Error: norm([F,P])=      0.194555348291, max([F,P])=      0.031493069670
 orbitals (Q,E):
 ---------------
 A :15...25          ( 2.00    -0.4250)  ( 2.00    -0.4099)  ( 2.00    -0.3982)  ( 2.00    -0.3763)
                     ( 2.00    -0.3716)  ( 2.00    -0.3477)  ( 2.00    -0.3328)  ( 2.00    -0.2910)
                     ( 2.00    -0.2347)  ( 2.00    -0.2114)  ( 0.00    -0.0502)

 CYCLE    6
  SDIIS (wt  0.729): -0.0047  0.1429  0.0102  0.5246  0.3270
 A-DIIS (wt  0.271):  0.0000  0.0000  0.0000  0.3984  0.6016
  DIIS coefficients: -0.0034  0.1042  0.0074  0.4903  0.4015
 SCF Error: norm([F,P])=      0.164639401968, max([F,P])=      0.027844347666
 orbitals (Q,E):
 ---------------
 A :15...25          ( 2.00    -0.4195)  ( 2.00    -0.4055)  ( 2.00    -0.3917)  ( 2.00    -0.3688)
                     ( 2.00    -0.3653)  ( 2.00    -0.3420)  ( 2.00    -0.3280)  ( 2.00    -0.2890)
                     ( 2.00    -0.2417)  ( 2.00    -0.2065)  ( 0.00    -0.0492)

 CYCLE    7
  SDIIS (wt  0.866): -0.0029  0.0554  0.0046  0.2766  0.2967  0.3695
 A-DIIS (wt  0.134):  0.0000  0.0000  0.0000  0.0000  0.1474  0.8526
  DIIS coefficients: -0.0025  0.0480  0.0040  0.2394  0.2766  0.4345
 SCF Error: norm([F,P])=      0.062249547047, max([F,P])=      0.014312991426
 orbitals (Q,E):
 ---------------
 A :15...25          ( 2.00    -0.4174)  ( 2.00    -0.4039)  ( 2.00    -0.3912)  ( 2.00    -0.3675)
                     ( 2.00    -0.3639)  ( 2.00    -0.3402)  ( 2.00    -0.3265)  ( 2.00    -0.2872)
                     ( 2.00    -0.2360)  ( 2.00    -0.2057)  ( 0.00    -0.0464)

 CYCLE    8
  SDIIS (wt  0.975): -0.0012  0.0146 -0.0007  0.0926  0.1181  0.2835  0.4931
 A-DIIS (wt  0.025):  0.0000  0.0000  0.0000  0.0000  0.0000  0.1162  0.8838
  DIIS coefficients: -0.0012  0.0143 -0.0007  0.0903  0.1151  0.2793  0.5029
 SCF Error: norm([F,P])=      0.017323501307, max([F,P])=      0.003476786887
 orbitals (Q,E):
 ---------------
 A :15...25          ( 2.00    -0.4180)  ( 2.00    -0.4044)  ( 2.00    -0.3915)  ( 2.00    -0.3680)
                     ( 2.00    -0.3645)  ( 2.00    -0.3408)  ( 2.00    -0.3270)  ( 2.00    -0.2875)
                     ( 2.00    -0.2371)  ( 2.00    -0.2060)  ( 0.00    -0.0469)

 CYCLE    9
  SDIIS (wt  1.000): -0.0010  0.0057 -0.0009  0.0350  0.0470  0.1283  0.2727  0.5131
  DIIS coefficients: -0.0010  0.0057 -0.0009  0.0350  0.0470  0.1283  0.2727  0.5131
 SCF Error: norm([F,P])=      0.001746150441, max([F,P])=      0.000263959775
 orbitals (Q,E):
 ---------------
 A :15...25          ( 2.00    -0.4180)  ( 2.00    -0.4044)  ( 2.00    -0.3915)  ( 2.00    -0.3680)
                     ( 2.00    -0.3645)  ( 2.00    -0.3408)  ( 2.00    -0.3270)  ( 2.00    -0.2876)
                     ( 2.00    -0.2372)  ( 2.00    -0.2060)  ( 0.00    -0.0471)

 CYCLE   10
  SDIIS (wt  1.000): -0.0001  0.0007 -0.0002  0.0047  0.0068  0.0207  0.0556  0.1902  0.7217
  DIIS coefficients: -0.0001  0.0007 -0.0002  0.0047  0.0068  0.0207  0.0556  0.1902  0.7217
 SCF Error: norm([F,P])=      0.000283719987, max([F,P])=      0.000034126345
 orbitals (Q,E):
 ---------------
 A :15...25          ( 2.00    -0.4180)  ( 2.00    -0.4044)  ( 2.00    -0.3915)  ( 2.00    -0.3680)
                     ( 2.00    -0.3645)  ( 2.00    -0.3408)  ( 2.00    -0.3270)  ( 2.00    -0.2876)
                     ( 2.00    -0.2372)  ( 2.00    -0.2060)  ( 0.00    -0.0471)

 CYCLE   11
  SDIIS (wt  1.000):  0.0000  0.0000  0.0000  0.0007  0.0012  0.0042  0.0141  0.0695  0.3602  0.5501
  DIIS coefficients:  0.0000  0.0000  0.0000  0.0007  0.0012  0.0042  0.0141  0.0695  0.3602  0.5501
 SCF Error: norm([F,P])=      0.000100258904, max([F,P])=      0.000016186545
 orbitals (Q,E):
 ---------------
 A :15...25          ( 2.00    -0.4180)  ( 2.00    -0.4044)  ( 2.00    -0.3915)  ( 2.00    -0.3680)
                     ( 2.00    -0.3645)  ( 2.00    -0.3408)  ( 2.00    -0.3270)  ( 2.00    -0.2876)
                     ( 2.00    -0.2372)  ( 2.00    -0.2060)  ( 0.00    -0.0471)

 CYCLE   12
  SDIIS (wt  1.000):  0.0000  0.0000 -0.0001  0.0000  0.0003  0.0019  0.0173  0.1073  0.2432  0.6302
  DIIS coefficients:  0.0000  0.0000 -0.0001  0.0000  0.0003  0.0019  0.0173  0.1073  0.2432  0.6302
 SCF Error: norm([F,P])=      0.000023778188, max([F,P])=      0.000004501226
 orbitals (Q,E):
 ---------------
 A :15...25          ( 2.00    -0.4180)  ( 2.00    -0.4044)  ( 2.00    -0.3915)  ( 2.00    -0.3680)
                     ( 2.00    -0.3645)  ( 2.00    -0.3408)  ( 2.00    -0.3270)  ( 2.00    -0.2876)
                     ( 2.00    -0.2372)  ( 2.00    -0.2060)  ( 0.00    -0.0471)

 CYCLE   13
  SDIIS (wt  1.000):  0.0000  0.0000  0.0000  0.0001  0.0006  0.0062  0.0381  0.1021  0.3798  0.4730
  DIIS coefficients:  0.0000  0.0000  0.0000  0.0001  0.0006  0.0062  0.0381  0.1021  0.3798  0.4730
 SCF Error: norm([F,P])=      0.000009611365, max([F,P])=      0.000001371291
 orbitals (Q,E):
 ---------------
 A :15...25          ( 2.00    -0.4180)  ( 2.00    -0.4044)  ( 2.00    -0.3915)  ( 2.00    -0.3680)
                     ( 2.00    -0.3645)  ( 2.00    -0.3408)  ( 2.00    -0.3270)  ( 2.00    -0.2876)
                     ( 2.00    -0.2372)  ( 2.00    -0.2060)  ( 0.00    -0.0471)

 CYCLE   14
  SDIIS (wt  1.000):  0.0000  0.0000  0.0000  0.0000  0.0011  0.0082  0.0274  0.1326  0.2231  0.6076
  DIIS coefficients:  0.0000  0.0000  0.0000  0.0000  0.0011  0.0082  0.0274  0.1326  0.2231  0.6076
 SCF Error: norm([F,P])=      0.000001751601, max([F,P])=      0.000000217319
 orbitals (Q,E):
 ---------------
 A :15...25          ( 2.00    -0.4180)  ( 2.00    -0.4044)  ( 2.00    -0.3915)  ( 2.00    -0.3680)
                     ( 2.00    -0.3645)  ( 2.00    -0.3408)  ( 2.00    -0.3270)  ( 2.00    -0.2876)
                     ( 2.00    -0.2372)  ( 2.00    -0.2060)  ( 0.00    -0.0471)

 SCF CONVERGED

 CYCLE   15
 *** Using FIT density in Focky
  SDIIS (wt  1.000):  0.0000  0.0000  0.0000  0.0002  0.0015  0.0056  0.0325  0.0737  0.3449  0.5417
  DIIS coefficients:  0.0000  0.0000  0.0000  0.0002  0.0015  0.0056  0.0325  0.0737  0.3449  0.5417
 SCF Error: norm([F,P])=      0.000000810548, max([F,P])=      0.000000116164
 orbitals (Q,E):
 ---------------
 A :15...34          ( 2.00    -0.4180)  ( 2.00    -0.4044)  ( 2.00    -0.3915)  ( 2.00    -0.3680)
                     ( 2.00    -0.3645)  ( 2.00    -0.3408)  ( 2.00    -0.3270)  ( 2.00    -0.2876)
                     ( 2.00    -0.2372)  ( 2.00    -0.2060)  ( 0.00    -0.0471)  ( 0.00    -0.0172)
                     ( 0.00    -0.0054)  ( 0.00     0.0204)  ( 0.00     0.0314)  ( 0.00     0.0457)
                     ( 0.00     0.0701)  ( 0.00     0.0911)  ( 0.00     0.1221)  ( 0.00     0.1283)


 Fit test: (difference of exact and fit density, squared integrated, result summed over spins)
         SCF:                                          0.00000013351388

 Gross Charges per Atom (Z minus electrons)
 ==========================================
            -0.4178   -0.5272   -0.0673    0.2245    0.6011    0.7121   -0.1061   -0.1756   -0.1881   -0.1727
            -0.0433   -0.0280    0.1884
 Net Total:  0.00000000



 =================================================================
 M U L T I P O L E   D E R I V E D   C H A R G E   A N A L Y S I S
 =================================================================

 See: M. Swart, P.Th. van Duijnen, J.G. Snijders, J.Comput.Chem., (2001), p. 79-88.

 --------------------------------------- 
 Multipole derived atomic charges (a.u.)
 --------------------------------------- 

        Atom    Level:     MDC-m        MDC-d        MDC-q
 ---------------------------------------------------------
     1     O           -0.206887    -0.480206    -0.607093
     2     O           -0.363954    -0.471873    -0.600202
     3     N           -0.085092    -0.605801    -0.748353
     4     C            0.194795     0.253081     0.199674
     5     C            0.213107     0.187391     0.154196
     6     C            0.341551     0.474755     0.851452
     7     H           -0.042912    -0.011117    -0.025717
     8     H           -0.065014    -0.050309    -0.075006
     9     H           -0.065529    -0.042759    -0.003131
    10     H           -0.064955    -0.043162    -0.046478
    11     H            0.005432     0.202007     0.278042
    12     H            0.011496     0.227594     0.243877
    13     H            0.127959     0.360398     0.378738
 *** Using NEW gradient routines ***


 Geometry CYCLE 1
 ==============

 Energy gradients wrt nuclear displacements
 ==========================================

     Atom      Cartesian (a.u./angstrom)
                 X         Y         Z
 ----------------------------------------
     1 O    -0.002159  0.021448 -0.006926
     2 O     0.015235  0.029346 -0.005937
     3 N     0.001784 -0.016458 -0.017688
     4 C     0.026489 -0.025561  0.029994
     5 C    -0.008409  0.035764 -0.002966
     6 C    -0.038004 -0.031424  0.005676
     7 H    -0.001386  0.003772 -0.005655
     8 H    -0.000978  0.007763  0.001511
     9 H     0.002282 -0.003693 -0.002607
    10 H    -0.000530 -0.005522  0.002304
    11 H     0.001615  0.002107 -0.002982
    12 H    -0.006014 -0.003194  0.002458
    13 H     0.010074 -0.014347  0.002819
 ----------------------------------------
 
----------------------------------------------------------------------
Geometry Convergence after Step   1       (Hartree/Angstrom,Angstrom)
----------------------------------------------------------------------
current energy                               -2.74889276 Hartree
energy change                      -2.74889276     0.00100000    F
constrained gradient max            0.03800384     0.00100000    F
constrained gradient rms            0.01507443     0.00066667    F
gradient max                        0.03800384
gradient rms                        0.01507443
cart. step max                      0.15352230     0.01000000    F
cart. step rms                      0.04685926     0.00666667    F
 


 Coordinates (Cartesian)
 =======================

     Atom                    bohr                                 angstrom                 Geometric Variables
                   X           Y           Z              X           Y           Z       (0:frozen, *:LT par.)
 --------------------------------------------------------------------------------------------------------------
     1 O       2.694459   -1.986917    0.591385       1.425846   -1.051431    0.312948      1       2       3
     2 O       2.331586    1.974514   -0.941242       1.233822    1.044868   -0.498084      4       5       6
     3 N      -2.679534    2.277348    0.440157      -1.417949    1.205121    0.232921      7       8       9
     4 C      -1.400626   -0.175505    0.675489      -0.741179   -0.092873    0.357453     10      11      12
     5 C      -2.466338   -2.364001   -0.908177      -1.305130   -1.250975   -0.480586     13      14      15
     6 C       1.390718    0.166647    0.068001       0.735936    0.088186    0.035984     16      17      18
     7 H      -1.494818   -0.706833    2.681877      -0.791024   -0.374040    1.419188     19      20      21
     8 H      -1.492480   -4.164453   -0.540729      -0.789786   -2.203734   -0.286141     22      23      24
     9 H      -4.478375   -2.631798   -0.483963      -2.369854   -1.392687   -0.256102     25      26      27
    10 H      -2.283504   -1.948885   -2.934038      -1.208378   -1.031306   -1.552626     28      29      30
    11 H      -4.553292    2.064229    0.850741      -2.409498    1.092343    0.450193     31      32      33
    12 H      -2.572888    2.912110   -1.380695      -1.361513    1.541022   -0.730632     34      35      36
    13 H       4.449372   -1.728332    0.085575       2.354506   -0.914594    0.045284     37      38      39
 --------------------------------------------------------------------------------------------------------------

 Number of elements of the density matrix on this node (used, total):      9318     34980



 ===========================================
 Numerical Integration : Fuzzy Cells (Becke)
 ===========================================
  
 Becke grid quality: EXCELLENT      
  
 Lebedev angular grid order:             min:  17 max:  47
 Nr. of radial points:                   min: 100 max: 114

 Total nr. of points:     641311
 Nr. of blocks:             5011
 Block length:               128
 Nr. of dummy points:         97


 Test of Precision of the Numerical Integration Grid
 ===================================================

 Integral of the Total Core Density:                   0.00000000000000



 ========================
 Density Fitting (zlmFit)
 ========================
  
 ZlmFit Fit Quality: EXCELLENT      
  
 Max L-expansion:                        min:  14 max:  15
 Nr. of radial interpolation points:     min: 182 max: 252



 =====
 S C F  ***  ScaSCF  ***
 =====
  
 Initial density matrix is taken from previous geometry

 CYCLE    1
