
 *******************************************************************************
 *                                                                             *
 *  --------------------------------                                           *
 *   Amsterdam Modeling Suite (AMS)              2019.303                      *
 *  --------------------------------                                           *
 *                                               r81909 2020-02-21             *
 *                                                                             *
 *                                                                             *
 *                            =====================                            *
 *                            |                   |                            *
 *                            |     D I R A C     |                            *
 *                            |                   |                            *
 *                            =====================                            *
 *                                                                             *
 *                                                                             *
 *   Online information and documentation:  https://www.scm.com/support/       *
 *   E-mail:  support@scm.com   info@scm.com                                   *
 *                                                                             *
 *   Scientific publications using AMS results must be properly referenced     *
 *   See the User Manuals (or the web site) for recommended citations          *
 *   The terms and conditions of the End User License Agreement apply to       *
 *   the use of AMS, https://www.scm.com/license-terms/                        *
 *                                                                             *
 *********************  x86_64_windows_intel / intelmpi  ***********************
 
 Licensed to: Student project account / Theoretische chemie, Vrije Universiteit / Amsterdam / NETHERLANDS
 SCM User ID: u20153
  
 DIRAC 2019.303  RunTime: Apr01-2020 22:36:16  Nodes: 1  Procs: 1

 Temporary files are created in D:\SCMTMP\/kid_0.1136454566
1
 HYDROGEN ATOM RELATIVISTIC, Point Nuc, A and c from libtc   
 N J RN H ZN XION ANUC CLIGHT
 5000    1100.00000000197.36710137  1.00000000  0.00000000    1.007825  0.1370360E+03
  PH   PHI     EPS        DEL        DELRVR
  0.30  0.30     2500.00  0.00001000  0.00001000
 IDIRC  NC1  NDEBU NPRIN  IPUN IRCOR IWCOR
   1   300     0     0     0     0     0
   XALPHA      XLATTER      RNUC
  0.70000000  0.00000000  0.00000000 Point Charge
   XN   XL   XJ      XE          XZ      XDELL
  1.0  0.0  0.5      -1.000       1.000     0.00000
 ICORP=  0  NPCL=  0  DEMP=0.00  PEPS=0.000000
 R(1)=  0.1000000E-08 D=  0.1005080E+01 RNUC=  0.0000000E+00
 converged at cycle   32  DENSITY AVERAGING    0.2400
  MAXIMUM ERROR IN R.V(R) IS   0.79874357E-05
 Q,EY,EV,EZ,ESUM,ETOT,RHO  0.100000E+01 -0.266614E+00 -0.619969E+00 -0.910779E+00 -0.203940E+00 -0.415998E+00  0.337036E-17


 DIRAC CALCULATION
1                    HYDROGEN ATOM RELATIVISTIC, Point Nuc, A and c from libtc


 EXCHANGE COEFFICIENT=  0.7000000           TAIL CORRECTION=  0.           NUCLEAR RADIUS=  0.000E+00
0                       ORBITAL    N    L    J     ELECTRONS     EIGENVALUE                DELTA OF EIGENV.

                          1S1/2  1.0  0.0  0.5     1.000       -0.2039397E+00                 0.2720093E-06


                                        NUCLEAR CHARGE=    1.000000
                            INTEGRAL OF CHARGE DENSITY=    1.000000
                           SUM OF THE ORBITAL ENERGIES=     -0.2039
                                          TOTAL ENERGY=     -0.4160
                                        KINETIC ENERGY=      0.4160
                             NUCLEAR ATTRACTION ENERGY=     -0.9108
                             ELECTRON REPULSION ENERGY=      0.2787
                                       EXCHANGE ENERGY=     -0.2000

 *******************************************************************************

                             D I R A C   E X I T
 NORMAL TERMINATION



 =================
 Timing Statistics
 =================
  
 Total Used :                     CPU=        0.08      System=        0.00     Elapsed=        0.12

 Calls  Section                     ( Mean, Percentage )
 ---------------------------------------------------------------------------------------------------
     2  ><      ................      0.00    0.00             0.00    0.00             0.00    0.00
     1  EXIT PROCEDURE .........      0.08  100.00             0.00    0.00             0.12  100.00


 Currently Open Files (EXIT00)
 ====================

 Unit    Access Format  Status   Type       Ident (file)
 -------------------------------------------------------
   3      SEQ    FORM   TRANSP  NORMAL      LOGFILE
                                          ( logfile )
 
Create H   file=DZP-H
XC
  GGA PBE
End
relativistic ZORA
Corepotentials t12.rel
End

 *******************************************************************************
 *                                                                             *
 *  --------------------------------                                           *
 *   Amsterdam Modeling Suite (AMS)              2019.303                      *
 *  --------------------------------                                           *
 *                                               r81909 2020-02-21             *
 *                                                                             *
 *                                                                             *
 *                              =================                              *
 *                              |               |                              *
 *                              |     A D F     |                              *
 *                              |               |                              *
 *                              =================                              *
 *                                                                             *
 *                                                                             *
 *   Online information and documentation:  https://www.scm.com/support/       *
 *   E-mail:  support@scm.com   info@scm.com                                   *
 *                                                                             *
 *   Scientific publications using AMS results must be properly referenced     *
 *   See the User Manuals (or the web site) for recommended citations          *
 *   The terms and conditions of the End User License Agreement apply to       *
 *   the use of AMS, https://www.scm.com/license-terms/                        *
 *                                                                             *
 *********************  x86_64_windows_intel / intelmpi  ***********************
 
 Licensed to: Student project account / Theoretische chemie, Vrije Universiteit / Amsterdam / NETHERLANDS
 SCM User ID: u20153
  
 ADF 2019.303  RunTime: Apr01-2020 22:36:16  Nodes: 1  Procs: 1

 Temporary files are created in D:\SCMTMP\/kid_0.428808998
 Hydrogen (DZP)



 ===========================
 A T T A C H E D   F I L E S
 ===========================
  
 CREATE - Data File:    DZP-H
                        Hydrogen (DZP)
 Core Potentials:
         file : t12.rel



 ===============================
 M O D E L   P A R A M E T E R S
 ===============================
  
 DENSITY FUNCTIONAL POTENTIAL (scf)
    LDA:                               PW92                                    == Not Default ==
    Gradient Corrections:              PBEc PBEx                               == Not Default ==

 SPIN  (restricted / unrestr.)
    Molecule:                          Restricted                               

 OTHER ASPECTS
    Relativistic Corrections:          scalar (ZORA,MAPA)                      == Not Default ==

    Nuclear Charge Density Model:      Point Charge Nuclei                      
    Core Treatment:                    Frozen Orbital(s)                        

    Hyperfine or Zeeman Interaction:   ---                                      



 =====================================
 S Y M M E T R Y ,   E L E C T R O N S
 =====================================
  
 Symmetry: ATOM

 Irreducible Representations, including subspecies
 -------------------------------------------------
 S
 P:x  P:y  P:z
 D:z2  D:x2-y2  D:xy  D:xz  D:yz
 F:z3  F:z  F:xyz  F:z2x  F:z2y  F:x  F:y


 Configuration of Valence Electrons
 ==================================

          Occupation Numbers
          -------------------------------------------------
 S        1
 P        0
 D        0
 F        0
          -------------------------------------------------

 Total:   1

 Net Charge: 0 (Nuclei minus Electrons)

 Preset values for MO occupations will be applied through SCF cycle no. 1000000
 Thereafter, the program will assign electrons to MOs that are spatially
 similar to the occupied MOs in a "reference" cycle ("KeepOrbitals").
 The reference cycle is always the PREVIOUS cycle: it will evolve with
 the SCF procedure.



 ================================
 (Slater-type)  F U N C T I O N S  ***  (Basis and Fit)  ***
 ================================
  

 Atom Type    1  (H)
 ==============

 Valence Basis Sets:   3
 -----------------------
   1 S    0.760000
   1 S    1.280000
   2 P    1.250000


 BAS: List of all Elementary Cartesian Basis Functions
 =====================================================

 The numbering in the list below (to the right of the function characteristics) is referred
 to in print-outs of MO eigenvectors and Mulliken populations in the BAS representation
 (as contrasted to the SFO representation).

 Notes:
 1. The functions are characterized by a polynomial prefactor (powers of x,y,z and r) and
    an exponential decay factor alpha.
 2. Since the basis sets are specific for an atom TYPE, the individual functions occur on
    all atoms of that type.
 3. The word 'Core' in the left margin signals that it is a Core Function (CF) : not a
    degree of freedom in the valence set, but only used to ensure orthogonalization of
    the other valence basis functions on the frozen Core Orbitals.


 (power of) X  Y  Z  R     Alpha  on Atom
            ==========     =====     ==========

 H                                    1
                                  ---------------------------------------------------------------------------
            0  0  0  0     0.760      1
            0  0  0  0     1.280      2
            1  0  0  0     1.250      3
            0  1  0  0     1.250      4
            0  0  1  0     1.250      5

 Total number of charge fitting functions (nprimf)        50
 Total number of Cartesian basis functions (naos)          5
 Total number of Cartesian core functions  (ncos)          0



 BAS: List of all Elementary Cartesian Basis Functions
 =====================================================

 The numbering in the list below (to the right of the function characteristics) is referred
 to in print-outs of MO eigenvectors and Mulliken populations in the BAS representation
 (as contrasted to the SFO representation).

 Notes:
 1. The functions are characterized by a polynomial prefactor (powers of x,y,z and r) and
    an exponential decay factor alpha.
 2. Since the basis sets are specific for an atom TYPE, the individual functions occur on
    all atoms of that type.
 3. The word 'Core' in the left margin signals that it is a Core Function (CF) : not a
    degree of freedom in the valence set, but only used to ensure orthogonalization of
    the other valence basis functions on the frozen Core Orbitals.


 (power of) X  Y  Z  R     Alpha  on Atom
            ==========     =====     ==========

 H                                    1
                                  ---------------------------------------------------------------------------
            0  0  0  0     0.760      1
            0  0  0  0     1.280      2
            1  0  0  0     1.250      3
            0  1  0  0     1.250      4
            0  0  1  0     1.250      5
1
 ***************************************************************************************************



                                              ***********************
                                              *  T E C H N I C A L  *
                                              ***********************
  



 =============================================================
 P A R A L L E L I Z A T I O N  and  V E C T O R I Z A T I O N
 =============================================================
  
 Nr of parallel processes:                                1
 Maximum vector length in NumInt loops:                 128



 =====================
 S C F   U P D A T E S
 =====================
  
 Max. nr. of cycles:                               300
 Convergence criterion:                              0.0000000100
   secondary criterion:                              0.0000000100

 Mix parameter (when DIIS does not apply):           0.2000000000
 Special mix parameter for the first cycle:          1.0000000000
 Mixed ADIIS+SDIIS will be used                  
    Max number of expansion vectors:                10
    Pure ADIIS when Max([F,P]) is above              0.1000000000
    Pure SDIIS when Max([F,P]) is below              0.0010000000
 Automatic ElectronSmearing (in case of problematic SCF convergence) disabled



 =================
 P R E C I S I O N  ***  (General: NumInt, NeglectFunctionTails, ...)  ***
 =================
  

 NumInt:           Target precision:                12.0000000000
 -------           Initial precision:               10.0000000000
                   Min. precision (optimization):   10.0000000000

 Neglect Functions:          Basis functions:        0.1000000000E-13
 ------------------          Fit functions:          0.1000000000E-13



 ===========================
 L I N E A R   S C A L I N G
 ===========================
  

 Cut-off radii density fit:                        0.1000000000E-97
 Overlap cut-off criterion AO matrix elements:     0.1000000000E-97
 Cut-offs for Coulomb potential and fitted density:0.1000000000E-97
 Cut-off criterion for Coulomb multipole terms:    0.1000000000E-97
 Progressive Convergence parameter:                 0.000000000    
1
 ***************************************************************************************************



                                            ***************************
                                            *  C O M P U T A T I O N  *
                                            ***************************
  

 Number of elements of the density matrix on this node (used, total):        15        15



 ===========================================
 Numerical Integration : Fuzzy Cells (Becke)
 ===========================================
  
 Becke grid quality: VERYGOOD       
  
 Lebedev angular grid order:             min:  13 max:  41
 Nr. of radial points:                   min:  64 max:  64

 Total nr. of points:         64
 Nr. of blocks:                1
 Block length:                64
 Nr. of dummy points:          0


 Test of Precision of the Numerical Integration Grid
 ===================================================

 Integral of the Total Core Density:                   0.00000000000000



 ========================
 Density Fitting (zlmFit)
 ========================
  
 ZlmFit Fit Quality: VERYGOOD       
  
 Max L-expansion:                        min:   0 max:   0
 Nr. of radial interpolation points:     min: 120 max: 120



 =====
 S C F  ***  ScaSCF  ***
 =====
  

 CYCLE    1
 SCF Error: norm([F,P])=      0.000000000000, max([F,P])=      0.000000000000
 orbitals (Q,E):
 ---------------
 S :1...2            ( 1.00    -0.4983)  ( 0.00     0.1718)
 P :1...1            ( 0.00     0.1562)

 CYCLE    2
 SCF Error: norm([F,P])=      0.033001933656, max([F,P])=      0.033001933656
 orbitals (Q,E):
 ---------------
 S :1...2            ( 1.00    -0.2268)  ( 0.00     0.4005)
 P :1...1            ( 0.00     0.4153)

 CYCLE    3
  SDIIS (wt  0.000):  0.1528  0.8472
 A-DIIS (wt  1.000):  0.0000  1.0000
  DIIS coefficients:  0.0000  1.0000
 SCF Error: norm([F,P])=      0.005954454000, max([F,P])=      0.005954454000
 orbitals (Q,E):
 ---------------
 S :1...2            ( 1.00    -0.2417)  ( 0.00     0.3884)
 P :1...1            ( 0.00     0.4029)

 CYCLE    4
  SDIIS (wt  1.000):  0.1463  0.8537
 A-DIIS (wt  0.000):  0.0000  1.0000
  DIIS coefficients:  0.1463  0.8537
 SCF Error: norm([F,P])=      0.001020399433, max([F,P])=      0.001020399433
 orbitals (Q,E):
 ---------------
 S :1...2            ( 1.00    -0.2394)  ( 0.00     0.3902)
 P :1...1            ( 0.00     0.4048)

 CYCLE    5
  SDIIS (wt  1.000):  0.0014  0.9986
  DIIS coefficients:  0.0014  0.9986
 SCF Error: norm([F,P])=      0.000001436995, max([F,P])=      0.000001436995
 orbitals (Q,E):
 ---------------
 S :1...2            ( 1.00    -0.2394)  ( 0.00     0.3902)
 P :1...1            ( 0.00     0.4048)

 CYCLE    6
  SDIIS (wt  1.000): -0.0002  1.0002
  DIIS coefficients: -0.0002  1.0002
 SCF Error: norm([F,P])=      0.000000000334, max([F,P])=      0.000000000334
 orbitals (Q,E):
 ---------------
 S :1...2            ( 1.00    -0.2394)  ( 0.00     0.3902)
 P :1...1            ( 0.00     0.4048)

 SCF CONVERGED

 CYCLE    7
1
 ***************************************************************************************************



                                                *******************
                                                *  R E S U L T S  *
                                                *******************
  
 *** Using FIT density in Focky
  SDIIS (wt  1.000):  0.0000  1.0000
  DIIS coefficients:  0.0000  1.0000
 SCF Error: norm([F,P])=      0.000000000000, max([F,P])=      0.000000000000

 Scaled ZORA Orbital Energies, per Irrep and Spin:
 =================================================
                        Occup              E (au)              E (eV)       Diff (eV) with prev. cycle
                        -----      --------------------        ------       --------------------------
 S
               1        1.000     -0.23939248892723E+00        -6.514               7.55E-15
               2        0.000      0.39021645958605E+00        10.618
 P
               1        0.000      0.40480887453077E+00        11.015


 Partially Occupied:
               1 S                -0.23939248892723E+00
  
 LUMO :        2 S                 0.39021645958605E+00
  


 Orbital Energies, all Irreps
 ========================================

 Irrep        no.  (spin)   Occup              E (au)                E (eV)
 ---------------------------------------------------------------------------
 S             1             1.00       -0.23939248892723E+00        -6.5142
 S             2             0.00        0.39021645958605E+00        10.6183
 P             1             0.00        0.40480887453077E+00        11.0154


 All Electron Calculation, thus no Orbital Energies of the Core Orbitals are calculated



 =======================================
 M U L L I K E N   P O P U L A T I O N S
 =======================================
  
 The survey below gives for each atom:
 a) the total charge (Z minus electrons)
 b) the net spin polarization (nr of electrons spin-A minus spin-B)
 c) for each spin the atomic electron valence density (integrated) per L-value.

 Atom              Charge    Spin density          S         P         D         F
 ----              ------    ------------       ------    ------    ------    ------
 1 H               0.0000                       1.0000    0.0000    0.0000    0.0000

 Populations of individual BAS functions
 ----------------------------------------
 1 H            0.6465  0.3535  0.0000  0.0000  0.0000

 Gross Charges per Atom (Z minus electrons)
 ==========================================
             0.0000
 Net Total:  0.00000000



 =======================================================================
 Electrostatic potential at the Nuclei due to electrons and other nuclei
 =======================================================================
  
         Atom                  Potential
         ----                  ---------
     1)   H                   0.94379605
 
 
 ========================
 No memory problems found
 ========================
 
 Maximum number of active allocate calls:         306
 
 *******************************************************************************

                             A D F   E X I T
 NORMAL TERMINATION



 =================
 Timing Statistics
 =================
  
 Total Used :                     CPU=        0.61      System=        0.05     Elapsed=        0.82

 Calls  Section                     ( Mean, Percentage )
 ---------------------------------------------------------------------------------------------------
     3  ><      ................      0.00    0.00             0.00    0.00             0.01    2.33
     1  INIT    ................      0.09   15.38             0.03   66.67             0.13   16.40
     1  GEOMET  ................      0.03    5.13             0.00    0.00             0.07    8.81
     1  INPUTA  ................      0.00    0.00             0.00    0.00             0.01    0.61
     1  MAINSY  ................      0.02    2.56             0.00    0.00             0.03    4.16
     1  SYMFIT  ................      0.00    0.00             0.00    0.00             0.00    0.12
     1  CORORT  ................      0.00    0.00             0.00    0.00             0.01    0.86
     1  SYMORB  ................      0.00    0.00             0.00    0.00             0.00    0.24
     1  CLSMAT  ................      0.00    0.00             0.00    0.00             0.01    1.84
     1  ORTHON  ................      0.00    0.00             0.00    0.00             0.01    1.84
     1  GENPT   ................      0.03    5.13             0.00    0.00             0.03    3.30
     1  PTBAS   ................      0.02    2.56             0.00    0.00             0.02    2.08
     7  FOCKY   ................      0.03   38.46             0.00   33.33             0.04   33.17
     7  FOCKTR  ................      0.00    2.56             0.00    0.00             0.00    1.59
     7  SDIIS   ................      0.01   12.82             0.00    0.00             0.01   10.89
     1  COREPS  ................      0.02    2.56             0.00    0.00             0.03    3.18
     1  POPAN   ................      0.02    2.56             0.00    0.00             0.02    2.45
     1  DEBYE   ................      0.03    5.13             0.00    0.00             0.02    1.96
     1  EXIT PROCEDURE .........      0.03    5.13             0.00    0.00             0.03    4.16


 Currently Open Files (EXIT00)
 ====================

 Unit    Access Format  Status   Type       Ident (file)
 -------------------------------------------------------
   3      SEQ    FORM   TRANSP  NORMAL      LOGFILE
                                          ( logfile )

 ***************************************************************************************************
 (LOGFILE)
 <Apr01-2020> <22:36:16>  DIRAC 2019.303  RunTime: Apr01-2020 22:36:16  Nodes: 1  Procs: 1
 <Apr01-2020> <22:36:16>  NORMAL TERMINATION
 <Apr01-2020> <22:36:16>  END
 <Apr01-2020> <22:36:16>  ADF 2019.303  RunTime: Apr01-2020 22:36:16  Nodes: 1  Procs: 1
 <Apr01-2020> <22:36:16>  Hydrogen (DZP)
 <Apr01-2020> <22:36:16>  RunType   : CREATE
 <Apr01-2020> <22:36:16>  Net Charge: 0 (Nuclei minus Electrons)
 <Apr01-2020> <22:36:16>  Symmetry  : ATOM
  Coordinates
    Atom         X           Y           Z   (Angstrom)
    1.H         0.000000    0.000000    0.000000
 <Apr01-2020> <22:36:16>  >>>> CORORT
 <Apr01-2020> <22:36:16>  >>>> CLSMAT
 <Apr01-2020> <22:36:16>  >>>> ORTHON
 <Apr01-2020> <22:36:16>  >>>> GENPT
 <Apr01-2020> <22:36:16>  Block Length=  64
 <Apr01-2020> <22:36:16>  >>>> PTBAS
 <Apr01-2020> <22:36:16>  >>>> CYCLE
 <Apr01-2020> <22:36:16>              |Error|         MaxErr       Wt(A-DIIS)
 <Apr01-2020> <22:36:16>      1      0.00000000      0.00000000
 <Apr01-2020> <22:36:16>      2      0.03300193      0.03300193
 <Apr01-2020> <22:36:16>      3      0.00595445      0.00595445    100.0
 <Apr01-2020> <22:36:16>      4      0.00102040      0.00102040      0.0
 <Apr01-2020> <22:36:16>      5      0.00000144      0.00000144      0.0
 <Apr01-2020> <22:36:17>      6      0.00000000      0.00000000      0.0
 <Apr01-2020> <22:36:17>  SCF converged
 <Apr01-2020> <22:36:17>      7      0.00000000      0.00000000      0.0
 <Apr01-2020> <22:36:17>  >>>> POPAN
 <Apr01-2020> <22:36:17>  >>>> DEBYE
 <Apr01-2020> <22:36:17>  NORMAL TERMINATION
 <Apr01-2020> <22:36:17>  END

 *******************************************************************************
 *                                                                             *
 *  --------------------------------                                           *
 *   Amsterdam Modeling Suite (AMS)              2019.303                      *
 *  --------------------------------                                           *
 *                                               r81909 2020-02-21             *
 *                                                                             *
 *                                                                             *
 *                            =====================                            *
 *                            |                   |                            *
 *                            |     D I R A C     |                            *
 *                            |                   |                            *
 *                            =====================                            *
 *                                                                             *
 *                                                                             *
 *   Online information and documentation:  https://www.scm.com/support/       *
 *   E-mail:  support@scm.com   info@scm.com                                   *
 *                                                                             *
 *   Scientific publications using AMS results must be properly referenced     *
 *   See the User Manuals (or the web site) for recommended citations          *
 *   The terms and conditions of the End User License Agreement apply to       *
 *   the use of AMS, https://www.scm.com/license-terms/                        *
 *                                                                             *
 *********************  x86_64_windows_intel / intelmpi  ***********************
 
 Licensed to: Student project account / Theoretische chemie, Vrije Universiteit / Amsterdam / NETHERLANDS
 SCM User ID: u20153
  
 DIRAC 2019.303  RunTime: Apr01-2020 22:36:17  Nodes: 1  Procs: 1

 Temporary files are created in D:\SCMTMP\/kid_0.978694509
1
 NITROGEN ATOM all electron RELATIVISTIC, Point Nuc, A and c 
 N J RN H ZN XION ANUC CLIGHT
 5000    4100.00000000197.36710137  7.00000000  0.00000000   14.003074  0.1370360E+03
  PH   PHI     EPS        DEL        DELRVR
  0.30  0.30     2500.00  0.00001000  0.00001000
 IDIRC  NC1  NDEBU NPRIN  IPUN IRCOR IWCOR
   1   300     0     0     0     0     0
   XALPHA      XLATTER      RNUC
  0.70000000  0.00000000  0.00000000 Point Charge
   XN   XL   XJ      XE          XZ      XDELL
  1.0  0.0  0.5      -5.000       2.000     0.00000
  2.0  0.0  0.5      -1.000       2.000     0.00000
  2.0  1.0  0.5      -1.000       2.000     0.00000
  2.0  1.0  1.5      -1.000       1.000     0.00000
 ICORP=  0  NPCL=  0  DEMP=0.00  PEPS=0.000000
 R(1)=  0.1000000E-08 D=  0.1005080E+01 RNUC=  0.0000000E+00
 converged at cycle   25  DENSITY AVERAGING    0.3000
  MAXIMUM ERROR IN R.V(R) IS   0.97905511E-05
 Q,EY,EV,EZ,ESUM,ETOT,RHO  0.700000E+01 -0.796419E+01 -0.840156E+02 -0.127663E+03 -0.300692E+02 -0.538837E+02  0.270066E-14


 DIRAC CALCULATION
1                    NITROGEN ATOM all electron RELATIVISTIC, Point Nuc, A and c from libtc


 EXCHANGE COEFFICIENT=  0.7000000           TAIL CORRECTION=  0.           NUCLEAR RADIUS=  0.000E+00
0                       ORBITAL    N    L    J     ELECTRONS     EIGENVALUE                DELTA OF EIGENV.

                          1S1/2  1.0  0.0  0.5     2.000       -0.1403720E+02                 0.4993583E-04
                          2S1/2  2.0  0.0  0.5     2.000       -0.6456810E+00                 0.6544571E-05
                          2P1/2  2.0  1.0  0.5     2.000       -0.2347008E+00                 0.5687228E-05
                          2P3/2  2.0  1.0  1.5     1.000       -0.2339893E+00                 0.5679256E-05


                                        NUCLEAR CHARGE=    7.000000
                            INTEGRAL OF CHARGE DENSITY=    7.000000
                           SUM OF THE ORBITAL ENERGIES=    -30.0692
                                          TOTAL ENERGY=    -53.8837
                                        KINETIC ENERGY=     53.9465
                             NUCLEAR ATTRACTION ENERGY=   -127.6627
                             ELECTRON REPULSION ENERGY=     25.8056
                                       EXCHANGE ENERGY=     -5.9731

 *******************************************************************************

                             D I R A C   E X I T
 NORMAL TERMINATION



 =================
 Timing Statistics
 =================
  
 Total Used :                     CPU=        0.12      System=        0.00     Elapsed=        0.18

 Calls  Section                     ( Mean, Percentage )
 ---------------------------------------------------------------------------------------------------
     2  ><      ................      0.00    0.00             0.00    0.00             0.00    0.00
     1  EXIT PROCEDURE .........      0.12  100.00             0.00    0.00             0.18  100.00


 Currently Open Files (EXIT00)
 ====================

 Unit    Access Format  Status   Type       Ident (file)
 -------------------------------------------------------
   3      SEQ    FORM   TRANSP  NORMAL      LOGFILE
                                          ( logfile )
 
Create N   file=DZP-N
XC
  GGA PBE
End
relativistic ZORA
Corepotentials t12.rel
End

 *******************************************************************************
 *                                                                             *
 *  --------------------------------                                           *
 *   Amsterdam Modeling Suite (AMS)              2019.303                      *
 *  --------------------------------                                           *
 *                                               r81909 2020-02-21             *
 *                                                                             *
 *                                                                             *
 *                              =================                              *
 *                              |               |                              *
 *                              |     A D F     |                              *
 *                              |               |                              *
 *                              =================                              *
 *                                                                             *
 *                                                                             *
 *   Online information and documentation:  https://www.scm.com/support/       *
 *   E-mail:  support@scm.com   info@scm.com                                   *
 *                                                                             *
 *   Scientific publications using AMS results must be properly referenced     *
 *   See the User Manuals (or the web site) for recommended citations          *
 *   The terms and conditions of the End User License Agreement apply to       *
 *   the use of AMS, https://www.scm.com/license-terms/                        *
 *                                                                             *
 *********************  x86_64_windows_intel / intelmpi  ***********************
 
 Licensed to: Student project account / Theoretische chemie, Vrije Universiteit / Amsterdam / NETHERLANDS
 SCM User ID: u20153
  
 ADF 2019.303  RunTime: Apr01-2020 22:36:18  Nodes: 1  Procs: 1

 Temporary files are created in D:\SCMTMP\/kid_0.428910547
 Nitrogen (DZP)



 ===========================
 A T T A C H E D   F I L E S
 ===========================
  
 CREATE - Data File:    DZP-N
                        Nitrogen (DZP)
 Core Potentials:
         file : t12.rel



 ===============================
 M O D E L   P A R A M E T E R S
 ===============================
  
 DENSITY FUNCTIONAL POTENTIAL (scf)
    LDA:                               PW92                                    == Not Default ==
    Gradient Corrections:              PBEc PBEx                               == Not Default ==

 SPIN  (restricted / unrestr.)
    Molecule:                          Restricted                               

 OTHER ASPECTS
    Relativistic Corrections:          scalar (ZORA,MAPA)                      == Not Default ==

    Nuclear Charge Density Model:      Point Charge Nuclei                      
    Core Treatment:                    Frozen Orbital(s)                        

    Hyperfine or Zeeman Interaction:   ---                                      



 =====================================
 S Y M M E T R Y ,   E L E C T R O N S
 =====================================
  
 Symmetry: ATOM

 Irreducible Representations, including subspecies
 -------------------------------------------------
 S
 P:x  P:y  P:z
 D:z2  D:x2-y2  D:xy  D:xz  D:yz
 F:z3  F:z  F:xyz  F:z2x  F:z2y  F:x  F:y


 Configuration of Valence Electrons
 ==================================

          Occupation Numbers
          -------------------------------------------------
 S        2*2
 P        3
 D        0
 F        0
          -------------------------------------------------

 Total:   7

 Net Charge: 0 (Nuclei minus Electrons)

 Preset values for MO occupations will be applied through SCF cycle no. 1000000
 Thereafter, the program will assign electrons to MOs that are spatially
 similar to the occupied MOs in a "reference" cycle ("KeepOrbitals").
 The reference cycle is always the PREVIOUS cycle: it will evolve with
 the SCF procedure.



 ================================
 (Slater-type)  F U N C T I O N S  ***  (Basis and Fit)  ***
 ================================
  

 Atom Type    1  (N)
 ==============

 Valence Basis Sets:   7
 -----------------------
   1 S    8.740000
   1 S    5.900000
   2 S    1.460000
   2 S    2.380000
   2 P    2.580000
   2 P    1.120000
   3 D    2.200000


 BAS: List of all Elementary Cartesian Basis Functions
 =====================================================

 The numbering in the list below (to the right of the function characteristics) is referred
 to in print-outs of MO eigenvectors and Mulliken populations in the BAS representation
 (as contrasted to the SFO representation).

 Notes:
 1. The functions are characterized by a polynomial prefactor (powers of x,y,z and r) and
    an exponential decay factor alpha.
 2. Since the basis sets are specific for an atom TYPE, the individual functions occur on
    all atoms of that type.
 3. The word 'Core' in the left margin signals that it is a Core Function (CF) : not a
    degree of freedom in the valence set, but only used to ensure orthogonalization of
    the other valence basis functions on the frozen Core Orbitals.


 (power of) X  Y  Z  R     Alpha  on Atom
            ==========     =====     ==========

 N                                    1
                                  ---------------------------------------------------------------------------
            0  0  0  0     8.740      1
            0  0  0  0     5.900      2
            0  0  0  1     1.460      3
            0  0  0  1     2.380      4
            1  0  0  0     2.580      5
            0  1  0  0     2.580      6
            0  0  1  0     2.580      7
            1  0  0  0     1.120      8
            0  1  0  0     1.120      9
            0  0  1  0     1.120     10
            2  0  0  0     2.200     11
            1  1  0  0     2.200     12
            1  0  1  0     2.200     13
            0  2  0  0     2.200     14
            0  1  1  0     2.200     15
            0  0  2  0     2.200     16

 Total number of charge fitting functions (nprimf)        84
 Total number of Cartesian basis functions (naos)         16
 Total number of Cartesian core functions  (ncos)          0



 BAS: List of all Elementary Cartesian Basis Functions
 =====================================================

 The numbering in the list below (to the right of the function characteristics) is referred
 to in print-outs of MO eigenvectors and Mulliken populations in the BAS representation
 (as contrasted to the SFO representation).

 Notes:
 1. The functions are characterized by a polynomial prefactor (powers of x,y,z and r) and
    an exponential decay factor alpha.
 2. Since the basis sets are specific for an atom TYPE, the individual functions occur on
    all atoms of that type.
 3. The word 'Core' in the left margin signals that it is a Core Function (CF) : not a
    degree of freedom in the valence set, but only used to ensure orthogonalization of
    the other valence basis functions on the frozen Core Orbitals.


 (power of) X  Y  Z  R     Alpha  on Atom
            ==========     =====     ==========

 N                                    1
                                  ---------------------------------------------------------------------------
            0  0  0  0     8.740      1
            0  0  0  0     5.900      2
            0  0  0  1     1.460      3
            0  0  0  1     2.380      4
            1  0  0  0     2.580      5
            0  1  0  0     2.580      6
            0  0  1  0     2.580      7
            1  0  0  0     1.120      8
            0  1  0  0     1.120      9
            0  0  1  0     1.120     10
            2  0  0  0     2.200     11
            1  1  0  0     2.200     12
            1  0  1  0     2.200     13
            0  2  0  0     2.200     14
            0  1  1  0     2.200     15
            0  0  2  0     2.200     16
1
 ***************************************************************************************************



                                              ***********************
                                              *  T E C H N I C A L  *
                                              ***********************
  



 =============================================================
 P A R A L L E L I Z A T I O N  and  V E C T O R I Z A T I O N
 =============================================================
  
 Nr of parallel processes:                                1
 Maximum vector length in NumInt loops:                 128



 =====================
 S C F   U P D A T E S
 =====================
  
 Max. nr. of cycles:                               300
 Convergence criterion:                              0.0000000100
   secondary criterion:                              0.0000000100

 Mix parameter (when DIIS does not apply):           0.2000000000
 Special mix parameter for the first cycle:          1.0000000000
 Mixed ADIIS+SDIIS will be used                  
    Max number of expansion vectors:                10
    Pure ADIIS when Max([F,P]) is above              0.1000000000
    Pure SDIIS when Max([F,P]) is below              0.0010000000
 Automatic ElectronSmearing (in case of problematic SCF convergence) disabled



 =================
 P R E C I S I O N  ***  (General: NumInt, NeglectFunctionTails, ...)  ***
 =================
  

 NumInt:           Target precision:                12.0000000000
 -------           Initial precision:               10.0000000000
                   Min. precision (optimization):   10.0000000000

 Neglect Functions:          Basis functions:        0.1000000000E-13
 ------------------          Fit functions:          0.1000000000E-13



 ===========================
 L I N E A R   S C A L I N G
 ===========================
  

 Cut-off radii density fit:                        0.1000000000E-97
 Overlap cut-off criterion AO matrix elements:     0.1000000000E-97
 Cut-offs for Coulomb potential and fitted density:0.1000000000E-97
 Cut-off criterion for Coulomb multipole terms:    0.1000000000E-97
 Progressive Convergence parameter:                 0.000000000    
1
 ***************************************************************************************************



                                            ***************************
                                            *  C O M P U T A T I O N  *
                                            ***************************
  

 Number of elements of the density matrix on this node (used, total):       136       136



 ===========================================
 Numerical Integration : Fuzzy Cells (Becke)
 ===========================================
  
 Becke grid quality: VERYGOOD       
  
 Lebedev angular grid order:             min:  13 max:  41
 Nr. of radial points:                   min:  72 max:  72

 Total nr. of points:         72
 Nr. of blocks:                1
 Block length:                72
 Nr. of dummy points:          0


 Test of Precision of the Numerical Integration Grid
 ===================================================

 Integral of the Total Core Density:                   0.00000000000000



 ========================
 Density Fitting (zlmFit)
 ========================
  
 ZlmFit Fit Quality: VERYGOOD       
  
 Max L-expansion:                        min:   0 max:   0
 Nr. of radial interpolation points:     min: 160 max: 160



 =====
 S C F  ***  ScaSCF  ***
 =====
  

 CYCLE    1
 SCF Error: norm([F,P])=      0.000000000000, max([F,P])=      0.000000000000
 orbitals (Q,E):
 ---------------
 S :1...4            ( 2.00   -24.4960)  ( 2.00    -5.9918)  ( 0.00    -2.6086)  ( 0.00    19.6812)
 P :1...2            ( 3.00    -5.8044)  ( 0.00    -2.3898)
 D :1...1            ( 0.00    -2.7133)

 CYCLE    2
 SCF Error: norm([F,P])=      4.718076799890, max([F,P])=      3.575461190169
 orbitals (Q,E):
 ---------------
 S :1...3            ( 2.00   -12.0835)  ( 2.00    -0.1315)  ( 0.00     1.1656)
 P :1...2            ( 3.00     0.1954)  ( 0.00     1.3141)
 D :1...1            ( 0.00     1.7013)

 CYCLE    3
  SDIIS (wt  0.000):  0.2292  0.7708
 A-DIIS (wt  1.000):  0.2257  0.7743
  DIIS coefficients:  0.2257  0.7743
 SCF Error: norm([F,P])=      1.732126731486, max([F,P])=      1.376801059230
 orbitals (Q,E):
 ---------------
 S :1...3            ( 2.00   -14.7868)  ( 2.00    -0.9735)  ( 0.00     0.4203)
 P :1...2            ( 3.00    -0.5443)  ( 0.00     0.3959)
 D :1...1            ( 0.00     1.0221)

 CYCLE    4
  SDIIS (wt  0.000):  0.2625  0.7375
 A-DIIS (wt  1.000):  0.0374  0.9626
  DIIS coefficients:  0.0374  0.9626
 SCF Error: norm([F,P])=      0.635583350188, max([F,P])=      0.428482394394
 orbitals (Q,E):
 ---------------
 S :1...3            ( 2.00   -13.6651)  ( 2.00    -0.5145)  ( 0.00     0.7295)
 P :1...2            ( 3.00    -0.1047)  ( 0.00     0.7532)
 D :1...1            ( 0.00     1.3724)

 CYCLE    5
  SDIIS (wt  0.000): -0.0579  0.4000  0.6579
 A-DIIS (wt  1.000):  0.0000  0.3866  0.6134
  DIIS coefficients:  0.0000  0.3866  0.6134
 SCF Error: norm([F,P])=      0.532217646411, max([F,P])=      0.376684152835
 orbitals (Q,E):
 ---------------
 S :1...3            ( 2.00   -14.2179)  ( 2.00    -0.7154)  ( 0.00     0.5778)
 P :1...2            ( 3.00    -0.2872)  ( 0.00     0.5683)
 D :1...1            ( 0.00     1.2175)

 CYCLE    6
  SDIIS (wt  0.547): -0.0010 -0.0404  0.0767  0.9647
 A-DIIS (wt  0.453):  0.0000  0.0000  0.0000  1.0000
  DIIS coefficients: -0.0005 -0.0221  0.0420  0.9807
 SCF Error: norm([F,P])=      0.067155020791, max([F,P])=      0.045835320661
 orbitals (Q,E):
 ---------------
 S :1...3            ( 2.00   -14.1282)  ( 2.00    -0.6789)  ( 0.00     0.6033)
 P :1...2            ( 3.00    -0.2527)  ( 0.00     0.5977)
 D :1...1            ( 0.00     1.2457)

 CYCLE    7
  SDIIS (wt  0.811): -0.0010  0.0016  0.0049  0.2945  0.7001
 A-DIIS (wt  0.189):  0.0000  0.0000  0.0000  0.0740  0.9260
  DIIS coefficients: -0.0008  0.0013  0.0040  0.2528  0.7428
 SCF Error: norm([F,P])=      0.028462911560, max([F,P])=      0.019716358206
 orbitals (Q,E):
 ---------------
 S :1...3            ( 2.00   -14.1578)  ( 2.00    -0.6901)  ( 0.00     0.5954)
 P :1...2            ( 3.00    -0.2631)  ( 0.00     0.5884)
 D :1...1            ( 0.00     1.2374)

 CYCLE    8
  SDIIS (wt  0.985):  0.0002 -0.0003 -0.0014 -0.0594  1.0609
 A-DIIS (wt  0.015):  0.0000  0.0000  0.0000  0.0000  1.0000
  DIIS coefficients:  0.0002 -0.0003 -0.0014 -0.0586  1.0600
 SCF Error: norm([F,P])=      0.003576585702, max([F,P])=      0.002474836717
 orbitals (Q,E):
 ---------------
 S :1...3            ( 2.00   -14.1545)  ( 2.00    -0.6888)  ( 0.00     0.5963)
 P :1...2            ( 3.00    -0.2619)  ( 0.00     0.5894)
 D :1...1            ( 0.00     1.2383)

 CYCLE    9
  SDIIS (wt  1.000):  0.0000  0.0000 -0.0001  0.0000  0.0211  0.1560  0.8230
  DIIS coefficients:  0.0000  0.0000 -0.0001  0.0000  0.0211  0.1560  0.8230
 SCF Error: norm([F,P])=      0.000011723798, max([F,P])=      0.000007985879
 orbitals (Q,E):
 ---------------
 S :1...3            ( 2.00   -14.1545)  ( 2.00    -0.6888)  ( 0.00     0.5963)
 P :1...2            ( 3.00    -0.2619)  ( 0.00     0.5894)
 D :1...1            ( 0.00     1.2383)

 CYCLE   10
  SDIIS (wt  1.000):  0.0000 -0.0003 -0.0027 -0.0042  1.0072
  DIIS coefficients:  0.0000 -0.0003 -0.0027 -0.0042  1.0072
 SCF Error: norm([F,P])=      0.000000055897, max([F,P])=      0.000000040360
 orbitals (Q,E):
 ---------------
 S :1...3            ( 2.00   -14.1545)  ( 2.00    -0.6888)  ( 0.00     0.5963)
 P :1...2            ( 3.00    -0.2619)  ( 0.00     0.5894)
 D :1...1            ( 0.00     1.2383)

 CYCLE   11
  SDIIS (wt  1.000):  0.0000 -0.0192  1.0192
  DIIS coefficients:  0.0000 -0.0192  1.0192
 SCF Error: norm([F,P])=      0.000000001301, max([F,P])=      0.000000000848
 orbitals (Q,E):
 ---------------
 S :1...3            ( 2.00   -14.1545)  ( 2.00    -0.6888)  ( 0.00     0.5963)
 P :1...2            ( 3.00    -0.2619)  ( 0.00     0.5894)
 D :1...1            ( 0.00     1.2383)

 SCF CONVERGED

 CYCLE   12
1
 ***************************************************************************************************



                                                *******************
                                                *  R E S U L T S  *
                                                *******************
  
 *** Using FIT density in Focky
  SDIIS (wt  1.000):  0.0000 -0.0001  0.0051  0.9950
  DIIS coefficients:  0.0000 -0.0001  0.0051  0.9950
 SCF Error: norm([F,P])=      0.000000000002, max([F,P])=      0.000000000002

 Scaled ZORA Orbital Energies, per Irrep and Spin:
 =================================================
                        Occup              E (au)              E (eV)       Diff (eV) with prev. cycle
                        -----      --------------------        ------       --------------------------
 S
               1        2.000     -0.14154489824002E+02      -385.163              -5.51E-11
               2        2.000     -0.68880630668577E+00       -18.743              -2.13E-11
               3        0.000      0.59627237039470E+00        16.225
               4        0.000      0.28719733415597E+02       781.504
 P
               1        3.000     -0.26193884583507E+00        -7.128              -1.98E-11
               2        0.000      0.58941699261679E+00        16.039
 D
               1        0.000      0.12383353460103E+01        33.697


 Partially Occupied:
               1 P                -0.26193884583507E+00
  
 HOMO :        2 S                -0.68880630668577E+00
 LUMO :        2 P                 0.58941699261679E+00
  


 Orbital Energies, all Irreps
 ========================================

 Irrep        no.  (spin)   Occup              E (au)                E (eV)
 ---------------------------------------------------------------------------
 S             1             2.00       -0.14154489824002E+02      -385.1633
 S             2             2.00       -0.68880630668577E+00       -18.7434
 P             1             3.00       -0.26193884583507E+00        -7.1277
 P             2             0.00        0.58941699261679E+00        16.0389
 S             3             0.00        0.59627237039470E+00        16.2254
 D             1             0.00        0.12383353460103E+01        33.6968
 S             4             0.00        0.28719733415597E+02       781.5037


 All Electron Calculation, thus no Orbital Energies of the Core Orbitals are calculated



 =======================================
 M U L L I K E N   P O P U L A T I O N S
 =======================================
  
 The survey below gives for each atom:
 a) the total charge (Z minus electrons)
 b) the net spin polarization (nr of electrons spin-A minus spin-B)
 c) for each spin the atomic electron valence density (integrated) per L-value.

 Atom              Charge    Spin density          S         P         D         F
 ----              ------    ------------       ------    ------    ------    ------
 1 N               0.0000                       4.0000    3.0000    0.0000    0.0000

 Populations of individual BAS functions
 ----------------------------------------
 1 N            0.5240  1.4552  0.7815  1.2392  0.5021  0.5021  0.5021  0.4979  0.4979  0.4979
                0.0000  0.0000  0.0000  0.0000  0.0000  0.0000

 Gross Charges per Atom (Z minus electrons)
 ==========================================
             0.0000
 Net Total:  0.00000000



 =======================================================================
 Electrostatic potential at the Nuclei due to electrons and other nuclei
 =======================================================================
  
         Atom                  Potential
         ----                  ---------
     1)   N                  18.28339303
 
 
 ========================
 No memory problems found
 ========================
 
 Maximum number of active allocate calls:         376
 
 *******************************************************************************

                             A D F   E X I T
 NORMAL TERMINATION



 =================
 Timing Statistics
 =================
  
 Total Used :                     CPU=        0.73      System=        0.19     Elapsed=        1.12

 Calls  Section                     ( Mean, Percentage )
 ---------------------------------------------------------------------------------------------------
     3  ><      ................      0.00    0.00             0.01    8.33             0.01    2.85
     1  INIT    ................      0.11   14.89             0.00    0.00             0.16   14.71
     1  GEOMET  ................      0.02    2.13             0.05   25.00             0.07    5.97
     1  INPUTA  ................      0.00    0.00             0.00    0.00             0.01    0.98
     1  MAINSY  ................      0.02    2.13             0.02    8.33             0.05    4.19
     1  SYMFIT  ................      0.00    0.00             0.00    0.00             0.00    0.18
     1  CORORT  ................      0.00    0.00             0.02    8.33             0.01    0.89
     1  SYMORB  ................      0.00    0.00             0.02    8.33             0.01    0.71
     1  CLSMAT  ................      0.00    0.00             0.00    0.00             0.02    1.60
     1  ORTHON  ................      0.00    0.00             0.00    0.00             0.02    1.78
     1  GENPT   ................      0.03    4.26             0.00    0.00             0.04    3.30
     1  PTBAS   ................      0.03    4.26             0.00    0.00             0.02    1.69
    12  FOCKY   ................      0.03   53.19             0.01   33.33             0.04   41.27
    12  FOCKTR  ................      0.00    2.13             0.00    0.00             0.00    1.16
    12  SDIIS   ................      0.01    8.51             0.00    8.33             0.01   11.14
     1  COREPS  ................      0.03    4.26             0.00    0.00             0.03    2.67
     1  POPAN   ................      0.00    0.00             0.00    0.00             0.01    1.25
     1  DEBYE   ................      0.00    0.00             0.00    0.00             0.01    0.71
     1  EXIT PROCEDURE .........      0.03    4.26             0.00    0.00             0.03    2.94


 Currently Open Files (EXIT00)
 ====================

 Unit    Access Format  Status   Type       Ident (file)
 -------------------------------------------------------
   3      SEQ    FORM   TRANSP  NORMAL      LOGFILE
                                          ( logfile )

 ***************************************************************************************************
 (LOGFILE)
 <Apr01-2020> <22:36:16>  DIRAC 2019.303  RunTime: Apr01-2020 22:36:16  Nodes: 1  Procs: 1
 <Apr01-2020> <22:36:16>  NORMAL TERMINATION
 <Apr01-2020> <22:36:16>  END
 <Apr01-2020> <22:36:16>  ADF 2019.303  RunTime: Apr01-2020 22:36:16  Nodes: 1  Procs: 1
 <Apr01-2020> <22:36:16>  Hydrogen (DZP)
 <Apr01-2020> <22:36:16>  RunType   : CREATE
 <Apr01-2020> <22:36:16>  Net Charge: 0 (Nuclei minus Electrons)
 <Apr01-2020> <22:36:16>  Symmetry  : ATOM
  Coordinates
    Atom         X           Y           Z   (Angstrom)
    1.H         0.000000    0.000000    0.000000
 <Apr01-2020> <22:36:16>  >>>> CORORT
 <Apr01-2020> <22:36:16>  >>>> CLSMAT
 <Apr01-2020> <22:36:16>  >>>> ORTHON
 <Apr01-2020> <22:36:16>  >>>> GENPT
 <Apr01-2020> <22:36:16>  Block Length=  64
 <Apr01-2020> <22:36:16>  >>>> PTBAS
 <Apr01-2020> <22:36:16>  >>>> CYCLE
 <Apr01-2020> <22:36:16>              |Error|         MaxErr       Wt(A-DIIS)
 <Apr01-2020> <22:36:16>      1      0.00000000      0.00000000
 <Apr01-2020> <22:36:16>      2      0.03300193      0.03300193
 <Apr01-2020> <22:36:16>      3      0.00595445      0.00595445    100.0
 <Apr01-2020> <22:36:16>      4      0.00102040      0.00102040      0.0
 <Apr01-2020> <22:36:16>      5      0.00000144      0.00000144      0.0
 <Apr01-2020> <22:36:17>      6      0.00000000      0.00000000      0.0
 <Apr01-2020> <22:36:17>  SCF converged
 <Apr01-2020> <22:36:17>      7      0.00000000      0.00000000      0.0
 <Apr01-2020> <22:36:17>  >>>> POPAN
 <Apr01-2020> <22:36:17>  >>>> DEBYE
 <Apr01-2020> <22:36:17>  NORMAL TERMINATION
 <Apr01-2020> <22:36:17>  END
 <Apr01-2020> <22:36:17>  DIRAC 2019.303  RunTime: Apr01-2020 22:36:17  Nodes: 1  Procs: 1
 <Apr01-2020> <22:36:17>  NORMAL TERMINATION
 <Apr01-2020> <22:36:17>  END
 <Apr01-2020> <22:36:18>  ADF 2019.303  RunTime: Apr01-2020 22:36:18  Nodes: 1  Procs: 1
 <Apr01-2020> <22:36:18>  Nitrogen (DZP)
 <Apr01-2020> <22:36:18>  RunType   : CREATE
 <Apr01-2020> <22:36:18>  Net Charge: 0 (Nuclei minus Electrons)
 <Apr01-2020> <22:36:18>  Symmetry  : ATOM
  Coordinates
    Atom         X           Y           Z   (Angstrom)
    1.N         0.000000    0.000000    0.000000
 <Apr01-2020> <22:36:18>  >>>> CORORT
 <Apr01-2020> <22:36:18>  >>>> CLSMAT
 <Apr01-2020> <22:36:18>  >>>> ORTHON
 <Apr01-2020> <22:36:18>  >>>> GENPT
 <Apr01-2020> <22:36:18>  Block Length=  72
 <Apr01-2020> <22:36:18>  >>>> PTBAS
 <Apr01-2020> <22:36:18>  >>>> CYCLE
 <Apr01-2020> <22:36:18>              |Error|         MaxErr       Wt(A-DIIS)
 <Apr01-2020> <22:36:18>      1      0.00000000      0.00000000
 <Apr01-2020> <22:36:18>      2      4.71807680      3.57546119
 <Apr01-2020> <22:36:18>      3      1.73212673      1.37680106    100.0
 <Apr01-2020> <22:36:18>      4      0.63558335      0.42848239    100.0
 <Apr01-2020> <22:36:18>      5      0.53221765      0.37668415    100.0
 <Apr01-2020> <22:36:18>      6      0.06715502      0.04583532     45.3
 <Apr01-2020> <22:36:18>      7      0.02846291      0.01971636     18.9
 <Apr01-2020> <22:36:18>      8      0.00357659      0.00247484      1.5
 <Apr01-2020> <22:36:18>      9      0.00001172      0.00000799      0.0
 <Apr01-2020> <22:36:18>     10      0.00000006      0.00000004      0.0
 <Apr01-2020> <22:36:18>     11      0.00000000      0.00000000      0.0
 <Apr01-2020> <22:36:18>  SCF converged
 <Apr01-2020> <22:36:18>     12      0.00000000      0.00000000      0.0
 <Apr01-2020> <22:36:18>  >>>> POPAN
 <Apr01-2020> <22:36:18>  >>>> DEBYE
 <Apr01-2020> <22:36:18>  NORMAL TERMINATION
 <Apr01-2020> <22:36:19>  END


 Parallel Execution: Process Information
 ==============================================================================
 Rank   Node Name                              NodeID   MyNodeRank  NodeMaster
    0   DESKTOP-1M8FOJT                           0          0          0
    1   DESKTOP-1M8FOJT                           0          1         -1
    2   DESKTOP-1M8FOJT                           0          2         -1
    3   DESKTOP-1M8FOJT                           0          3         -1
 ==============================================================================


May use up to 3883MB of RAM as shared memory on node 0
 
AnalyticalFreq
end

Geometry
end

Relativistic Scalar ZORA

SYMMETRY NOSYM

XC
  GGA PBE
end

atoms
      1         N      0.000000      0.000000      0.000000
      2         H     -0.441700      0.290600      0.871100
      3         H      0.725600      0.689600     -0.190700
      4         H      0.487500     -0.870100      0.208900
end

Fragments
H t21.H
N t21.N
End

 *******************************************************************************
 *                                                                             *
 *  --------------------------------                                           *
 *   Amsterdam Modeling Suite (AMS)              2019.303                      *
 *  --------------------------------                                           *
 *                                               r81909 2020-02-21             *
 *                                                                             *
 *                                                                             *
 *                              =================                              *
 *                              |               |                              *
 *                              |     A D F     |                              *
 *                              |               |                              *
 *                              =================                              *
 *                                                                             *
 *                                                                             *
 *   Online information and documentation:  https://www.scm.com/support/       *
 *   E-mail:  support@scm.com   info@scm.com                                   *
 *                                                                             *
 *   Scientific publications using AMS results must be properly referenced     *
 *   See the User Manuals (or the web site) for recommended citations          *
 *   The terms and conditions of the End User License Agreement apply to       *
 *   the use of AMS, https://www.scm.com/license-terms/                        *
 *                                                                             *
 *********************  x86_64_windows_intel / intelmpi  ***********************
 
 Licensed to: Student project account / Theoretische chemie, Vrije Universiteit / Amsterdam / NETHERLANDS
 SCM User ID: u20153
  
 ADF 2019.303  RunTime: Apr01-2020 22:36:19  Nodes: 1  Procs: 4

 Temporary files are created in D:\SCMTMP\/kid_0.1907207188

Communication costs MPI_COMM_WORLD:      2.434 usec per message,   0.0089 usec per 8-byte item
Communication costs for intra-node:      1.455 usec per message,   0.0058 usec per 8-byte item

 *** (NO TITLE) ***



 ===========================
 A T T A C H E D   F I L E S
 ===========================
  



 ===============================
 M O D E L   P A R A M E T E R S
 ===============================
  
 DENSITY FUNCTIONAL POTENTIAL (scf)
    LDA:                               PW92                                    == Not Default ==
    Gradient Corrections:              PBEc PBEx                               == Not Default ==

 SPIN  (restricted / unrestr.)
    Molecule:                          Restricted                               
    Fragments:                         Restricted                               

 OTHER ASPECTS
    Relativistic Corrections:          scalar (ZORA,MAPA)                      == Not Default ==

    Nuclear Charge Density Model:      Point Charge Nuclei                      
    Core Treatment:                    Frozen Orbital(s)                        

    Hyperfine or Zeeman Interaction:   ---                                      


 Fragment File(s)
 ----------------
 N:
         file : t21.N
         jobid: ADF 2019.303  RunTime: Apr01-2020 22:36:18  Nodes: 1  Procs: 1
         title: Nitrogen (DZP)
 H:
         file : t21.H
         jobid: ADF 2019.303  RunTime: Apr01-2020 22:36:16  Nodes: 1  Procs: 1
         title: Hydrogen (DZP)



                                   *********************************************
                                   *  R U N   T Y P E : GEOMETRY OPTIMIZATION  *
                                   *********************************************
  



 ===============
 G E O M E T R Y  ***  3D  Molecule  ***
 ===============
  

 ATOMS
 =====                            X Y Z                    CHARGE
                                (Angstrom)             Nucl     +Core       At.Mass
                       --------------------------    ----------------       -------
    1  N               0.0000    0.0000    0.0000      7.00      7.00       14.0031
    2  H              -0.4417    0.2906    0.8711      1.00      1.00        1.0078
    3  H               0.7256    0.6896   -0.1907      1.00      1.00        1.0078
    4  H               0.4875   -0.8701    0.2089      1.00      1.00        1.0078


 FRAGMENTS
 =========                                     Atoms in this Fragment     Cart. coord.s (Angstrom)
                                               -------------------------------------------------------
    1  N                                                 1  N            0.0000    0.0000    0.0000
    2  H                                                 2  H           -0.4417    0.2906    0.8711
    3  H                                                 3  H            0.7256    0.6896   -0.1907
    4  H                                                 4  H            0.4875   -0.8701    0.2089


 Interatomic Distance Matrix (Angstrom)
 --------------------------------------

   1)     0.000
   2)     1.019   0.000
   3)     1.019   1.628   0.000
   4)     1.019   1.628   1.628   0.000

 Min. Distance =    1.0190
 Max. Distance =    1.6276



 =====================================
 S Y M M E T R Y ,   E L E C T R O N S
 =====================================
  
 Symmetry: NOSYM

 Irreducible Representations, including subspecies
 -------------------------------------------------
 A


 Configuration of Valence Electrons
 ==================================
 ( determined in the SCF procedure )

 Total:   10

 Net Charge: 0 (Nuclei minus Electrons)

 Aufbau principle for MO occupations will be applied through SCF cycle no.     150
 Thereafter, the program will assign electrons to MOs that are spatially
 similar to the occupied MOs in a "reference" cycle ("KeepOrbitals").
 The reference cycle is always the PREVIOUS cycle: it will evolve with
 the SCF procedure.
1
 ***************************************************************************************************



                                      ****************************************
                                      *  B U I L D : (Fragments, Functions)  *
                                      ****************************************
  

 Total nr. of (C)SFOs (summation over all irreps) :    30

 Specify PRINT SFO in the input file to get a full list

 Nr. of SFOs for ir.rep.           A :    30



 ================================
 (Slater-type)  F U N C T I O N S  ***  (Basis and Fit)  ***
 ================================
  

 Atom Type    1  (N)
 ==============

 Valence Basis Sets:   7
 -----------------------
   1 S    8.740000
   1 S    5.900000
   2 S    1.460000
   2 S    2.380000
   2 P    2.580000
   2 P    1.120000
   3 D    2.200000

 Atom Type    2  (H)
 ==============

 Valence Basis Sets:   3
 -----------------------
   1 S    0.760000
   1 S    1.280000
   2 P    1.250000


 BAS: List of all Elementary Cartesian Basis Functions
 =====================================================

 The numbering in the list below (to the right of the function characteristics) is referred
 to in print-outs of MO eigenvectors and Mulliken populations in the BAS representation
 (as contrasted to the SFO representation).

 Notes:
 1. The functions are characterized by a polynomial prefactor (powers of x,y,z and r) and
    an exponential decay factor alpha.
 2. Since the basis sets are specific for an atom TYPE, the individual functions occur on
    all atoms of that type.
 3. The word 'Core' in the left margin signals that it is a Core Function (CF) : not a
    degree of freedom in the valence set, but only used to ensure orthogonalization of
    the other valence basis functions on the frozen Core Orbitals.


 (power of) X  Y  Z  R     Alpha  on Atom
            ==========     =====     ==========

 N                                    1
                                  ---------------------------------------------------------------------------
            0  0  0  0     8.740      1
            0  0  0  0     5.900      2
            0  0  0  1     1.460      3
            0  0  0  1     2.380      4
            1  0  0  0     2.580      5
            0  1  0  0     2.580      6
            0  0  1  0     2.580      7
            1  0  0  0     1.120      8
            0  1  0  0     1.120      9
            0  0  1  0     1.120     10
            2  0  0  0     2.200     11
            1  1  0  0     2.200     12
            1  0  1  0     2.200     13
            0  2  0  0     2.200     14
            0  1  1  0     2.200     15
            0  0  2  0     2.200     16

 H                                    2    3    4
                                  ---------------------------------------------------------------------------
            0  0  0  0     0.760     17   22   27
            0  0  0  0     1.280     18   23   28
            1  0  0  0     1.250     19   24   29
            0  1  0  0     1.250     20   25   30
            0  0  1  0     1.250     21   26   31

 Total number of charge fitting functions (nprimf)       234
 Total number of Cartesian basis functions (naos)         31
 Total number of Cartesian core functions  (ncos)          0



 Coordinates (Cartesian)
 =======================

     Atom                    bohr                                 angstrom                 Geometric Variables
                   X           Y           Z              X           Y           Z       (0:frozen, *:LT par.)
 --------------------------------------------------------------------------------------------------------------
     1 N       0.000000    0.000000    0.000000       0.000000    0.000000    0.000000      1       2       3
     2 H      -0.834692    0.549154    1.646140      -0.441700    0.290600    0.871100      4       5       6
     3 H       1.371185    1.303155   -0.360371       0.725600    0.689600   -0.190700      7       8       9
     4 H       0.921241   -1.644251    0.394764       0.487500   -0.870100    0.208900     10      11      12
 --------------------------------------------------------------------------------------------------------------
1
 ***************************************************************************************************



                                              ***********************
                                              *  T E C H N I C A L  *
                                              ***********************
  



 =============================================================
 P A R A L L E L I Z A T I O N  and  V E C T O R I Z A T I O N
 =============================================================
  
 Nr of parallel processes:                                4
 Maximum vector length in NumInt loops:                 128



 ===============================
 G E O M E T R Y   U P D A T E S
 ===============================
  
 Optimization coordinates:                       Delocalized
 Optimization code branch:                       NEW
 Hessian update method:                          BFGS (Broyden-Fletcher-Goldfarb-Shanno)

 Iterative Geometry Improvements:
    Max. nr. of iterations:                         30
    Convergence criteria:
         Change in energy (hartree):                 0.0010000000
         Gradients (au/Angstrom):                    0.0010000000
         Cart/bondlength changes (Angstrom):         0.0100000000
    Max. step to take:
         Trust Radius:                               0.2000000000

 GDIIS (Geometry Direct Inversion in Iteration Space):
    First geometry cycle:                            0
    Max. number expansion vectors:                   5



 =====================
 S C F   U P D A T E S
 =====================
  
 Max. nr. of cycles:                               300
 Convergence criterion:                              0.0000010000
   secondary criterion:                              0.0010000000

 Mix parameter (when DIIS does not apply):           0.2000000000
 Mixed ADIIS+SDIIS will be used                  
    Max number of expansion vectors:                10
    Pure ADIIS when Max([F,P]) is above              0.1000000000
    Pure SDIIS when Max([F,P]) is below              0.0010000000



 =================
 P R E C I S I O N  ***  (General: NumInt, NeglectFunctionTails, ...)  ***
 =================
  

 NumInt:           Target precision:                 4.0000000000
 -------           Initial precision:                4.0000000000
                   Min. precision (optimization):    4.0000000000

 Neglect Functions:          Basis functions:        0.1000000000E-05
 ------------------          Fit functions:          0.1000000000E-05



 ===========================
 L I N E A R   S C A L I N G
 ===========================
  

 Cut-off radii density fit:                        0.1000000000E-07
 Overlap cut-off criterion AO matrix elements:     0.1000000000E-05
 Cut-offs for Coulomb potential and fitted density:0.1000000000E-07
 Cut-off criterion for Coulomb multipole terms:    0.1000000000E-07
 Progressive Convergence parameter:                 0.000000000    
1
 ***************************************************************************************************



                                            ***************************
                                            *  C O M P U T A T I O N  *
                                            ***************************
  

 Number of elements of the density matrix on this node (used, total):       151       496



 ===========================================
 Numerical Integration : Fuzzy Cells (Becke)
 ===========================================
  
 Becke grid quality: NORMAL         
  
 Lebedev angular grid order:             min:  11 max:  23
 Nr. of radial points:                   min:  46 max:  52

 Total nr. of points:      24436
 Nr. of blocks:              191
 Block length:               128
 Nr. of dummy points:         12


 Test of Precision of the Numerical Integration Grid
 ===================================================

 Integral of the Total Core Density:                   0.00000000000000



 ========================
 Density Fitting (zlmFit)
 ========================
  
 ZlmFit Fit Quality: NORMAL         
  
 Max L-expansion:                        min:   5 max:   6
 Nr. of radial interpolation points:     min:  36 max:  48



 =====
 S C F  ***  ScaSCF  ***
 =====
  
 Initial density matrix is calculated as sum of fragments

 CYCLE    1
 SCF Error: norm([F,P])=      2.518631574250, max([F,P])=      1.064781039142
 orbitals (Q,E):
 ---------------
 A :1...15           ( 2.00   -14.2946)  ( 2.00    -0.9830)  ( 2.00    -0.5961)  ( 2.00    -0.5960)
                     ( 2.00    -0.4257)  ( 0.00    -0.0610)  ( 0.00     0.0181)  ( 0.00     0.0181)
                     ( 0.00     0.2585)  ( 0.00     0.2585)  ( 0.00     0.3110)  ( 0.00     0.3527)
                     ( 0.00     0.3935)  ( 0.00     0.3935)  ( 0.00     0.6426)

 CYCLE    2
  SDIIS (wt  0.000):  0.1242  0.8758
 A-DIIS (wt  1.000):  0.6908  0.3092
  DIIS coefficients:  0.6908  0.3092
 SCF Error: norm([F,P])=      0.846435164339, max([F,P])=      0.306205805978
 orbitals (Q,E):
 ---------------
 A :1...6            ( 2.00   -14.0224)  ( 2.00    -0.8552)  ( 2.00    -0.4833)  ( 2.00    -0.4833)
                     ( 2.00    -0.2943)  ( 0.00    -0.0235)

 CYCLE    3
  SDIIS (wt  0.000):  0.0086 -0.1697  1.1612
 A-DIIS (wt  1.000):  0.2039  0.0000  0.7961
  DIIS coefficients:  0.2039  0.0000  0.7961
 SCF Error: norm([F,P])=      0.142853457355, max([F,P])=      0.050158774510
 orbitals (Q,E):
 ---------------
 A :1...6            ( 2.00   -13.9759)  ( 2.00    -0.7904)  ( 2.00    -0.4236)  ( 2.00    -0.4236)
                     ( 2.00    -0.2358)  ( 0.00     0.0012)

 CYCLE    4
  SDIIS (wt  0.915):  0.0797 -0.2654  1.1857
 A-DIIS (wt  0.085):  0.0000  0.0000  1.0000
  DIIS coefficients:  0.0730 -0.2429  1.1699
 SCF Error: norm([F,P])=      0.031685036722, max([F,P])=      0.009380076160
 orbitals (Q,E):
 ---------------
 A :1...6            ( 2.00   -13.9928)  ( 2.00    -0.7838)  ( 2.00    -0.4164)  ( 2.00    -0.4163)
                     ( 2.00    -0.2291)  ( 0.00     0.0050)

 CYCLE    5
  SDIIS (wt  1.000):  0.0180 -0.0699  0.2899  0.7620
  DIIS coefficients:  0.0180 -0.0699  0.2899  0.7620
 SCF Error: norm([F,P])=      0.003627718656, max([F,P])=      0.000777067219
 orbitals (Q,E):
 ---------------
 A :1...6            ( 2.00   -13.9915)  ( 2.00    -0.7833)  ( 2.00    -0.4160)  ( 2.00    -0.4160)
                     ( 2.00    -0.2291)  ( 0.00     0.0051)

 CYCLE    6
  SDIIS (wt  1.000):  0.0012 -0.0052  0.0233  0.1534  0.8273
  DIIS coefficients:  0.0012 -0.0052  0.0233  0.1534  0.8273
 SCF Error: norm([F,P])=      0.000385572877, max([F,P])=      0.000114683820
 orbitals (Q,E):
 ---------------
 A :1...6            ( 2.00   -13.9915)  ( 2.00    -0.7833)  ( 2.00    -0.4161)  ( 2.00    -0.4160)
                     ( 2.00    -0.2290)  ( 0.00     0.0051)

 CYCLE    7
  SDIIS (wt  1.000):  0.0001 -0.0003  0.0013  0.0113  0.0919  0.8957
  DIIS coefficients:  0.0001 -0.0003  0.0013  0.0113  0.0919  0.8957
 SCF Error: norm([F,P])=      0.000075150716, max([F,P])=      0.000023316123
 orbitals (Q,E):
 ---------------
 A :1...6            ( 2.00   -13.9916)  ( 2.00    -0.7833)  ( 2.00    -0.4161)  ( 2.00    -0.4160)
                     ( 2.00    -0.2291)  ( 0.00     0.0051)

 CYCLE    8
  SDIIS (wt  1.000):  0.0000  0.0000 -0.0001 -0.0005 -0.0024  0.0872  0.9158
  DIIS coefficients:  0.0000  0.0000 -0.0001 -0.0005 -0.0024  0.0872  0.9158
 SCF Error: norm([F,P])=      0.000003706744, max([F,P])=      0.000001205886
 orbitals (Q,E):
 ---------------
 A :1...6            ( 2.00   -13.9916)  ( 2.00    -0.7833)  ( 2.00    -0.4161)  ( 2.00    -0.4160)
                     ( 2.00    -0.2291)  ( 0.00     0.0051)

 CYCLE    9
  SDIIS (wt  1.000):  0.0000  0.0000  0.0000 -0.0001 -0.0006  0.0110  0.1445  0.8452
  DIIS coefficients:  0.0000  0.0000  0.0000 -0.0001 -0.0006  0.0110  0.1445  0.8452
 SCF Error: norm([F,P])=      0.000000244569, max([F,P])=      0.000000071332
 orbitals (Q,E):
 ---------------
 A :1...6            ( 2.00   -13.9916)  ( 2.00    -0.7833)  ( 2.00    -0.4161)  ( 2.00    -0.4160)
                     ( 2.00    -0.2291)  ( 0.00     0.0051)

 SCF CONVERGED

 CYCLE   10
 *** Using FIT density in Focky
  SDIIS (wt  1.000):  0.0000  0.0000  0.0000  0.0000 -0.0001 -0.0010  0.0017  0.3255  0.6739
  DIIS coefficients:  0.0000  0.0000  0.0000  0.0000 -0.0001 -0.0010  0.0017  0.3255  0.6739
 SCF Error: norm([F,P])=      0.000000113353, max([F,P])=      0.000000033113
 orbitals (Q,E):
 ---------------
 A :1...15           ( 2.00   -13.9916)  ( 2.00    -0.7833)  ( 2.00    -0.4161)  ( 2.00    -0.4160)
                     ( 2.00    -0.2291)  ( 0.00     0.0051)  ( 0.00     0.1085)  ( 0.00     0.1085)
                     ( 0.00     0.3439)  ( 0.00     0.3439)  ( 0.00     0.4009)  ( 0.00     0.4818)
                     ( 0.00     0.4874)  ( 0.00     0.4874)  ( 0.00     0.7722)


 Fit test: (difference of exact and fit density, squared integrated, result summed over spins)
         SCF:                                          0.00017114584467

 Gross Charges per Atom (Z minus electrons)
 ==========================================
            -0.1375    0.0458    0.0458    0.0459
 Net Total:  0.00000000



 =================================================================
 M U L T I P O L E   D E R I V E D   C H A R G E   A N A L Y S I S
 =================================================================

 See: M. Swart, P.Th. van Duijnen, J.G. Snijders, J.Comput.Chem., (2001), p. 79-88.

 --------------------------------------- 
 Multipole derived atomic charges (a.u.)
 --------------------------------------- 

        Atom    Level:     MDC-m        MDC-d        MDC-q
 ---------------------------------------------------------
     1     N           -0.018186    -0.792077    -0.512714
     2     H            0.005990     0.264052     0.135750
     3     H            0.006111     0.263992     0.188637
     4     H            0.006086     0.264033     0.188327
 *** Using NEW gradient routines ***


 Geometry CYCLE 1
 ==============

 Energy gradients wrt nuclear displacements
 ==========================================

     Atom      Cartesian (a.u./angstrom)
                 X         Y         Z
 ----------------------------------------
     1 N     0.005809  0.000937  0.006484
     2 H     0.002660 -0.001995 -0.005902
     3 H    -0.005039 -0.004686  0.001003
     4 H    -0.003429  0.005744 -0.001585
 ----------------------------------------
 
----------------------------------------------------------------------
Geometry Convergence after Step   1       (Hartree/Angstrom,Angstrom)
----------------------------------------------------------------------
current energy                               -0.71077994 Hartree
energy change                      -0.71077994     0.00100000    F
constrained gradient max            0.00648424     0.00100000    F
constrained gradient rms            0.00426404     0.00066667    F
gradient max                        0.00648424
gradient rms                        0.00426404
cart. step max                      0.00369388     0.01000000    T
[...]
    1.N          0.025   0.004   0.029         0.034   0.060  -0.037        -0.049   0.050   0.036
    2.H          0.290  -0.163  -0.466        -0.146   0.118   0.282         0.330  -0.203  -0.635
    3.H         -0.394  -0.402   0.151        -0.572  -0.544   0.157         0.043   0.073  -0.005
    4.H         -0.250   0.511  -0.083         0.242  -0.407   0.082         0.301  -0.568   0.141




 List of All Frequencies:


 Intensities
 ===========

               Frequency       Dipole Strength        Absorption Intensity (degeneracy not counted)
                 cm-1           1e-40 esu2 cm2          km/mole
              ----------          ----------          ----------
             1039.405475          533.000675          138.864370
             1625.172928           47.642429           19.407587
             1626.532068           47.577405           19.397307
             3349.300901            2.859311            2.400456
             3484.357841            8.479515            7.405798
             3486.231143            8.477908            7.408375



 ============================
 Statistical Thermal Analysis  ***  ideal gas assumed  ***
 ============================
  
 Pressure:                  1.000000 atm.
 Temperature:             298.150000 K



 Moments of Inertia [amu*bohr^2] and principal axis
 ==================================================

           6.2146          6.2167          9.5958
 ------------------------------------------------
           0.2854         -0.7022          0.6523
          -0.9495         -0.2996          0.0930
          -0.1301          0.6459          0.7522


 The rotational contribution to the molecular entropy includes
 a term, dependent on the symmetry number sigma. The results 
 reported below were computed using sigma = 3, determined from
 the point group symmetry of the input geometry (C(3V)). 
 If this is not the correct symmetry, try symmetrizing the molecule before
 running the calculation (note: linear molecules should be aligned along one
 of the Cartesian axes).
 Contributions from frequencies below 20 1/cm are not included in
 the vibrational sums. Their contributions, if any, are reported separately.


     Temp                                                       Transl     Rotat    Vibrat     Total
     ----                                                       ------     -----    ------     -----

     298.15   Entropy (cal/mole-K):                             34.441    11.497     0.094    46.032
              Internal Energy (Kcal/mole):                       0.889     0.889    20.911    22.688
              Constant Volume Heat Capacity (cal/mole-K):        2.981     2.981     0.432     6.394

              Summary of energy terms
                                                   hartree              eV         kcal/mol           kJ/mol
                                      --------------------     -----------       ----------      -----------
              Bond Energy:              -0.710814501421150        -19.3422          -446.04         -1866.24
              Internal Energy:           0.036156288471329          0.9839            22.69            94.93
              pV/n = RT:                 0.000944186013486          0.0257             0.59             2.48
              Enthalpy H:               -0.673714026936336        -18.3327          -422.76         -1768.84
              -T*S:                     -0.021871171762331         -0.5951           -13.72           -57.42
              Gibbs free energy:        -0.695585198698667        -18.9278          -436.49         -1826.26
 

 ***************************************************************************************************
 


====================================================================
*** DONE CALCULATING ANALYTICAL SECOND DERIVATIVES OF THE ENERGY ***
====================================================================

 
 
 ========================
 No memory problems found
 ========================
 
 Maximum number of active allocate calls:         821
 
 *******************************************************************************

                             A D F   E X I T
 NORMAL TERMINATION



 =================
 Timing Statistics
 =================
  
 Total Used :                     CPU=       13.83      System=        1.38     Elapsed=       18.31

 Calls  Section                     ( Mean, Percentage )
 ---------------------------------------------------------------------------------------------------
     3  ><      ................      0.00    0.00             0.00    0.00             0.01    0.11
     1  INIT    ................      0.53    3.84             0.05    3.41             0.74    4.02
     1  GEOMET  ................      0.05    0.34             0.03    2.27             0.13    0.70
     1  FRAGM   ................      0.03    0.23             0.05    3.41             0.07    0.40
     1  INPUTA  ................      0.00    0.00             0.00    0.00             0.00    0.02
     1  ATDEN   ................      0.02    0.11             0.00    0.00             0.01    0.05
     4  MAINSY  ................      0.03    0.90             0.05   13.64             0.18    3.92
     4  SYMFIT  ................      0.00    0.00             0.00    0.00             0.01    0.23
     4  CORORT  ................      0.00    0.00             0.00    0.00             0.01    0.25
     4  SYMORB  ................      0.00    0.11             0.00    0.00             0.01    0.29
     4  CLSMAT  ................      0.02    0.45             0.00    0.00             0.04    0.77
     4  ORTHON  ................      0.01    0.23             0.01    2.27             0.02    0.53
     4  GENPT   ................      0.07    1.92             0.00    1.14             0.10    2.13
     4  PTBAS   ................      0.04    1.24             0.01    2.27             0.07    1.44
    27  FOCKY   ................      0.11   21.58             0.01   12.50             0.14   21.32
    27  FOCKTR  ................      0.01    1.02             0.00    1.14             0.01    0.82
    27  SDIIS   ................      0.00    0.68             0.00    4.55             0.02    2.52
     4  TOTEN   ................      0.37   10.62             0.01    2.27             0.42    9.16
     4  POPAN   ................      0.01    0.23             0.00    0.00             0.01    0.32
     4  DEBYE   ................      0.00    0.00             0.00    1.14             0.01    0.27
     4  INPUTE  ................      0.00    0.00             0.00    0.00             0.00    0.01
     4  SYMORE  ................      0.00    0.11             0.00    0.00             0.00    0.07
     7  ELNRGY  ................      0.04    1.92             0.01    3.41             0.05    1.89
     3  ENGRAD  ................      0.00    0.00             0.00    0.00             0.00    0.05
     1  COREPS  ................      0.05    0.34             0.03    2.27             0.09    0.46
     1  METS    ................      0.00    0.00             0.00    0.00             0.01    0.04
     1  CETS    ................      0.02    0.11             0.00    0.00             0.01    0.04
     1  POPUL   ................      0.00    0.00             0.00    0.00             0.01    0.07
     1  ENHESS  ................      7.45   53.90             0.59   43.18             8.78   47.95
     1  EXIT PROCEDURE .........      0.02    0.11             0.02    1.14             0.03    0.15


 Currently Open Files (EXIT00)
 ====================

 Unit    Access Format  Status   Type       Ident (file)
 -------------------------------------------------------
   3      SEQ    FORM   TRANSP  NORMAL      LOGFILE
                                          ( logfile )

 ***************************************************************************************************
 (LOGFILE)
 <Apr01-2020> <22:36:16>  DIRAC 2019.303  RunTime: Apr01-2020 22:36:16  Nodes: 1  Procs: 1
 <Apr01-2020> <22:36:16>  NORMAL TERMINATION
 <Apr01-2020> <22:36:16>  END
 <Apr01-2020> <22:36:16>  ADF 2019.303  RunTime: Apr01-2020 22:36:16  Nodes: 1  Procs: 1
 <Apr01-2020> <22:36:16>  Hydrogen (DZP)
 <Apr01-2020> <22:36:16>  RunType   : CREATE
 <Apr01-2020> <22:36:16>  Net Charge: 0 (Nuclei minus Electrons)
 <Apr01-2020> <22:36:16>  Symmetry  : ATOM
  Coordinates
    Atom         X           Y           Z   (Angstrom)
    1.H         0.000000    0.000000    0.000000
 <Apr01-2020> <22:36:16>  >>>> CORORT
 <Apr01-2020> <22:36:16>  >>>> CLSMAT
 <Apr01-2020> <22:36:16>  >>>> ORTHON
 <Apr01-2020> <22:36:16>  >>>> GENPT
 <Apr01-2020> <22:36:16>  Block Length=  64
 <Apr01-2020> <22:36:16>  >>>> PTBAS
 <Apr01-2020> <22:36:16>  >>>> CYCLE
 <Apr01-2020> <22:36:16>              |Error|         MaxErr       Wt(A-DIIS)
 <Apr01-2020> <22:36:16>      1      0.00000000      0.00000000
 <Apr01-2020> <22:36:16>      2      0.03300193      0.03300193
 <Apr01-2020> <22:36:16>      3      0.00595445      0.00595445    100.0
 <Apr01-2020> <22:36:16>      4      0.00102040      0.00102040      0.0
 <Apr01-2020> <22:36:16>      5      0.00000144      0.00000144      0.0
 <Apr01-2020> <22:36:17>      6      0.00000000      0.00000000      0.0
 <Apr01-2020> <22:36:17>  SCF converged
 <Apr01-2020> <22:36:17>      7      0.00000000      0.00000000      0.0
 <Apr01-2020> <22:36:17>  >>>> POPAN
 <Apr01-2020> <22:36:17>  >>>> DEBYE
 <Apr01-2020> <22:36:17>  NORMAL TERMINATION
 <Apr01-2020> <22:36:17>  END
 <Apr01-2020> <22:36:17>  DIRAC 2019.303  RunTime: Apr01-2020 22:36:17  Nodes: 1  Procs: 1
 <Apr01-2020> <22:36:17>  NORMAL TERMINATION
 <Apr01-2020> <22:36:17>  END
 <Apr01-2020> <22:36:18>  ADF 2019.303  RunTime: Apr01-2020 22:36:18  Nodes: 1  Procs: 1
 <Apr01-2020> <22:36:18>  Nitrogen (DZP)
 <Apr01-2020> <22:36:18>  RunType   : CREATE
 <Apr01-2020> <22:36:18>  Net Charge: 0 (Nuclei minus Electrons)
 <Apr01-2020> <22:36:18>  Symmetry  : ATOM
  Coordinates
    Atom         X           Y           Z   (Angstrom)
    1.N         0.000000    0.000000    0.000000
 <Apr01-2020> <22:36:18>  >>>> CORORT
 <Apr01-2020> <22:36:18>  >>>> CLSMAT
 <Apr01-2020> <22:36:18>  >>>> ORTHON
 <Apr01-2020> <22:36:18>  >>>> GENPT
 <Apr01-2020> <22:36:18>  Block Length=  72
 <Apr01-2020> <22:36:18>  >>>> PTBAS
 <Apr01-2020> <22:36:18>  >>>> CYCLE
 <Apr01-2020> <22:36:18>              |Error|         MaxErr       Wt(A-DIIS)
 <Apr01-2020> <22:36:18>      1      0.00000000      0.00000000
 <Apr01-2020> <22:36:18>      2      4.71807680      3.57546119
 <Apr01-2020> <22:36:18>      3      1.73212673      1.37680106    100.0
 <Apr01-2020> <22:36:18>      4      0.63558335      0.42848239    100.0
 <Apr01-2020> <22:36:18>      5      0.53221765      0.37668415    100.0
 <Apr01-2020> <22:36:18>      6      0.06715502      0.04583532     45.3
 <Apr01-2020> <22:36:18>      7      0.02846291      0.01971636     18.9
 <Apr01-2020> <22:36:18>      8      0.00357659      0.00247484      1.5
 <Apr01-2020> <22:36:18>      9      0.00001172      0.00000799      0.0
 <Apr01-2020> <22:36:18>     10      0.00000006      0.00000004      0.0
 <Apr01-2020> <22:36:18>     11      0.00000000      0.00000000      0.0
 <Apr01-2020> <22:36:18>  SCF converged
 <Apr01-2020> <22:36:18>     12      0.00000000      0.00000000      0.0
 <Apr01-2020> <22:36:18>  >>>> POPAN
 <Apr01-2020> <22:36:18>  >>>> DEBYE
 <Apr01-2020> <22:36:18>  NORMAL TERMINATION
 <Apr01-2020> <22:36:19>  END
 <Apr01-2020> <22:36:19>  ADF 2019.303  RunTime: Apr01-2020 22:36:19  Nodes: 1  Procs: 4
 <Apr01-2020> <22:36:20>  *** (NO TITLE) ***
 <Apr01-2020> <22:36:20>  RunType   : GEOMETRY OPTIMIZATION
 <Apr01-2020> <22:36:20>  Net Charge: 0 (Nuclei minus Electrons)
 <Apr01-2020> <22:36:20>  Symmetry  : NOSYM
 <Apr01-2020> <22:36:20>  >>>> FRAGM
  Coordinates in Geometry Cycle 1
    Atom         X           Y           Z   (Angstrom)
    1.N         0.000000    0.000000    0.000000
    2.H        -0.441700    0.290600    0.871100
    3.H         0.725600    0.689600   -0.190700
    4.H         0.487500   -0.870100    0.208900
 <Apr01-2020> <22:36:20>  >>>> CORORT
 <Apr01-2020> <22:36:20>  >>>> CLSMAT
 <Apr01-2020> <22:36:20>  >>>> ORTHON
 <Apr01-2020> <22:36:20>  >>>> GENPT
 <Apr01-2020> <22:36:20>  Block Length= 128
 <Apr01-2020> <22:36:20>  >>>> PTBAS
 <Apr01-2020> <22:36:20>  >>>> CYCLE
 <Apr01-2020> <22:36:21>              |Error|         MaxErr       Wt(A-DIIS)
 <Apr01-2020> <22:36:21>      1      2.51863157      1.06478104
 <Apr01-2020> <22:36:21>      2      0.84643516      0.30620581    100.0
 <Apr01-2020> <22:36:21>      3      0.14285346      0.05015877    100.0
 <Apr01-2020> <22:36:21>      4      0.03168504      0.00938008      8.5
 <Apr01-2020> <22:36:22>      5      0.00362772      0.00077707      0.0
 <Apr01-2020> <22:36:22>      6      0.00038557      0.00011468      0.0
 <Apr01-2020> <22:36:22>      7      0.00007515      0.00002332      0.0
 <Apr01-2020> <22:36:22>      8      0.00000371      0.00000121      0.0
 <Apr01-2020> <22:36:23>      9      0.00000024      0.00000007      0.0
 <Apr01-2020> <22:36:23>  SCF converged
 <Apr01-2020> <22:36:23>     10      0.00000011      0.00000003      0.0
 <Apr01-2020> <22:36:23>  >>>> TOTEN
 <Apr01-2020> <22:36:23>  >>>> POPAN
 <Apr01-2020> <22:36:23>  >>>> DEBYE
 <Apr01-2020> <22:36:23>  >>>> ENGRAD
 <Apr01-2020> <22:36:23>  current energy                               -0.71077994 Hartree
 <Apr01-2020> <22:36:23>  energy change                      -0.71077994     0.00100000    F
 <Apr01-2020> <22:36:23>  constrained gradient max            0.00648424     0.00100000    F
 <Apr01-2020> <22:36:23>  constrained gradient rms            0.00426404     0.00066667    F
 <Apr01-2020> <22:36:23>  gradient max                        0.00648424
 <Apr01-2020> <22:36:23>  gradient rms                        0.00426404
 <Apr01-2020> <22:36:23>  cart. step max                      0.00369388     0.01000000    T
 <Apr01-2020> <22:36:23>  cart. step rms                      0.00202986     0.00666667    T
  Coordinates in Geometry Cycle 2
    Atom         X           Y           Z   (Angstrom)
    1.N        -0.001351   -0.000256   -0.001515
    2.H        -0.444043    0.291770    0.873890
    3.H         0.727904    0.692379   -0.192112
    4.H         0.488890   -0.873794    0.209037
 <Apr01-2020> <22:36:23>  >>>> CORORT
 <Apr01-2020> <22:36:23>  >>>> CLSMAT
 <Apr01-2020> <22:36:23>  >>>> ORTHON
 <Apr01-2020> <22:36:23>  >>>> GENPT
 <Apr01-2020> <22:36:24>  Block Length= 128
 <Apr01-2020> <22:36:24>  >>>> PTBAS
 <Apr01-2020> <22:36:24>  >>>> CYCLE
 <Apr01-2020> <22:36:24>              |Error|         MaxErr       Wt(A-DIIS)
 <Apr01-2020> <22:36:24>      1      0.01680182      0.00629984
 <Apr01-2020> <22:36:24>      2      0.00437358      0.00151413    100.0
 <Apr01-2020> <22:36:24>      3      0.00814676      0.00281442    100.0
 <Apr01-2020> <22:36:24>      4      0.00158702      0.00054952      0.0
 <Apr01-2020> <22:36:24>      5      0.00008746      0.00002372      0.0
 <Apr01-2020> <22:36:24>      6      0.00000324      0.00000098      0.0
 <Apr01-2020> <22:36:24>  SCF converged
 <Apr01-2020> <22:36:24>      7      0.00000032      0.00000011      0.0
 <Apr01-2020> <22:36:25>  >>>> TOTEN
 <Apr01-2020> <22:36:25>  >>>> POPAN
 <Apr01-2020> <22:36:25>  >>>> DEBYE
 <Apr01-2020> <22:36:25>  >>>> ENGRAD
 <Apr01-2020> <22:36:25>  current energy                               -0.71081332 Hartree
 <Apr01-2020> <22:36:25>  energy change                      -0.00003338     0.00100000    T
 <Apr01-2020> <22:36:25>  constrained gradient max            0.00154544     0.00100000    F
 <Apr01-2020> <22:36:25>  constrained gradient rms            0.00070238     0.00066667    F
 <Apr01-2020> <22:36:25>  gradient max                        0.00154544
 <Apr01-2020> <22:36:25>  gradient rms                        0.00070238
 <Apr01-2020> <22:36:25>  cart. step max                      0.00152589     0.01000000    T
 <Apr01-2020> <22:36:25>  cart. step rms                      0.00078775     0.00666667    T
  Coordinates in Geometry Cycle 3
    Atom         X           Y           Z   (Angstrom)
    1.N        -0.002689   -0.000465   -0.003041
    2.H        -0.443000    0.291656    0.873902
    3.H         0.727934    0.691893   -0.191166
    4.H         0.489155   -0.872984    0.209605
 <Apr01-2020> <22:36:25>  >>>> CORORT
 <Apr01-2020> <22:36:25>  >>>> CLSMAT
 <Apr01-2020> <22:36:25>  >>>> ORTHON
 <Apr01-2020> <22:36:25>  >>>> GENPT
 <Apr01-2020> <22:36:26>  Block Length= 128
 <Apr01-2020> <22:36:26>  >>>> PTBAS
 <Apr01-2020> <22:36:26>  >>>> CYCLE
 <Apr01-2020> <22:36:26>              |Error|         MaxErr       Wt(A-DIIS)
 <Apr01-2020> <22:36:26>      1      0.00351924      0.00145397
 <Apr01-2020> <22:36:26>      2      0.00079494      0.00024063    100.0
 <Apr01-2020> <22:36:26>      3      0.00052572      0.00015219    100.0
 <Apr01-2020> <22:36:26>      4      0.00042033      0.00013578      0.0
 <Apr01-2020> <22:36:26>      5      0.00002625      0.00000897      0.0
 <Apr01-2020> <22:36:27>      6      0.00000032      0.00000011      0.0
 <Apr01-2020> <22:36:27>  SCF converged
 <Apr01-2020> <22:36:27>      7      0.00000006      0.00000002      0.0
 <Apr01-2020> <22:36:27>  >>>> TOTEN
 <Apr01-2020> <22:36:27>  >>>> POPAN
 <Apr01-2020> <22:36:27>  >>>> DEBYE
 <Apr01-2020> <22:36:27>  >>>> ENGRAD
 <Apr01-2020> <22:36:27>  current energy                               -0.71081450 Hartree
 <Apr01-2020> <22:36:27>  energy change                      -0.00000118     0.00100000    T
 <Apr01-2020> <22:36:27>  constrained gradient max            0.00075688     0.00100000    T
 <Apr01-2020> <22:36:27>  constrained gradient rms            0.00035202     0.00066667    T
 <Apr01-2020> <22:36:27>  gradient max                        0.00075688
 <Apr01-2020> <22:36:27>  gradient rms                        0.00035202
 <Apr01-2020> <22:36:27>  cart. step max                      0.00170956     0.01000000    T
 <Apr01-2020> <22:36:27>  cart. step rms                      0.00092222     0.00666667    T
 <Apr01-2020> <22:36:27>  GEOMETRY CONVERGED
 <Apr01-2020> <22:36:27>  Calculating Energy Terms for Final Geometry
  Coordinates in Geometry Cycle 3
    Atom         X           Y           Z   (Angstrom)
    1.N        -0.002689   -0.000465   -0.003041
    2.H        -0.443000    0.291656    0.873902
    3.H         0.727934    0.691893   -0.191166
    4.H         0.489155   -0.872984    0.209605
 <Apr01-2020> <22:36:27>  >>>> CORORT
 <Apr01-2020> <22:36:27>  >>>> CLSMAT
 <Apr01-2020> <22:36:27>  >>>> ORTHON
 <Apr01-2020> <22:36:27>  >>>> GENPT
 <Apr01-2020> <22:36:27>  Block Length= 128
 <Apr01-2020> <22:36:28>  >>>> PTBAS
 <Apr01-2020> <22:36:28>  >>>> CYCLE
 <Apr01-2020> <22:36:28>              |Error|         MaxErr       Wt(A-DIIS)
 <Apr01-2020> <22:36:28>      1      0.00000001      0.00000000
 <Apr01-2020> <22:36:28>      2      0.00000001      0.00000000    100.0
 <Apr01-2020> <22:36:28>  SCF converged
 <Apr01-2020> <22:36:28>      3      0.00000001      0.00000000    100.0
 <Apr01-2020> <22:36:28>  >>>> TOTEN
 <Apr01-2020> <22:36:28>  >>>> POPAN
 <Apr01-2020> <22:36:29>  >>>> DEBYE
 <Apr01-2020> <22:36:29>  >>>> AMETS
 <Apr01-2020> <22:36:29>  >>>> POPUL
 <Apr01-2020> <22:36:29>   Bond Energy          -0.71081450 a.u.
 <Apr01-2020> <22:36:29>   Bond Energy         -19.34224672 eV
 <Apr01-2020> <22:36:29>   Bond Energy        -446.04       kcal/mol
 <Apr01-2020> <22:36:29>  >>>> ENHESS
 <Apr01-2020> <22:36:29>  === NUCLEUS:     1
 <Apr01-2020> <22:36:31>  === NUCLEUS:     2
 <Apr01-2020> <22:36:34>  === NUCLEUS:     3
 <Apr01-2020> <22:36:36>  === NUCLEUS:     4
 <Apr01-2020> <22:36:37>  >>>> CALC_HESS_PMAT
 <Apr01-2020> <22:36:37>  >>>> CALC_HESS_WMAT
 <Apr01-2020> <22:36:37>  NORMAL TERMINATION
 <Apr01-2020> <22:36:37>  END
