
 *******************************************************************************
 *                                                                             *
 *  --------------------------------                                           *
 *   Amsterdam Modeling Suite (AMS)              2019.303                      *
 *  --------------------------------                                           *
 *                                               r81909 2020-02-21             *
 *                                                                             *
 *                                                                             *
 *                            =====================                            *
 *                            |                   |                            *
 *                            |     D I R A C     |                            *
 *                            |                   |                            *
 *                            =====================                            *
 *                                                                             *
 *                                                                             *
 *   Online information and documentation:  https://www.scm.com/support/       *
 *   E-mail:  support@scm.com   info@scm.com                                   *
 *                                                                             *
 *   Scientific publications using AMS results must be properly referenced     *
 *   See the User Manuals (or the web site) for recommended citations          *
 *   The terms and conditions of the End User License Agreement apply to       *
 *   the use of AMS, https://www.scm.com/license-terms/                        *
 *                                                                             *
 *********************  x86_64_windows_intel / intelmpi  ***********************
 
 Licensed to: Student project account / Theoretische chemie, Vrije Universiteit / Amsterdam / NETHERLANDS
 SCM User ID: u20153
  
 DIRAC 2019.303  RunTime: Apr01-2020 20:47:55  Nodes: 1  Procs: 1

 Temporary files are created in D:\SCMTMP\/kid_0.471690345
1
 HYDROGEN ATOM RELATIVISTIC, Point Nuc, A and c from libtc   
 N J RN H ZN XION ANUC CLIGHT
 5000    1100.00000000197.36710137  1.00000000  0.00000000    1.007825  0.1370360E+03
  PH   PHI     EPS        DEL        DELRVR
  0.30  0.30     2500.00  0.00001000  0.00001000
 IDIRC  NC1  NDEBU NPRIN  IPUN IRCOR IWCOR
   1   300     0     0     0     0     0
   XALPHA      XLATTER      RNUC
  0.70000000  0.00000000  0.00000000 Point Charge
   XN   XL   XJ      XE          XZ      XDELL
  1.0  0.0  0.5      -1.000       1.000     0.00000
 ICORP=  0  NPCL=  0  DEMP=0.00  PEPS=0.000000
 R(1)=  0.1000000E-08 D=  0.1005080E+01 RNUC=  0.0000000E+00
 converged at cycle   32  DENSITY AVERAGING    0.2400
  MAXIMUM ERROR IN R.V(R) IS   0.79874357E-05
 Q,EY,EV,EZ,ESUM,ETOT,RHO  0.100000E+01 -0.266614E+00 -0.619969E+00 -0.910779E+00 -0.203940E+00 -0.415998E+00  0.337036E-17


 DIRAC CALCULATION
1                    HYDROGEN ATOM RELATIVISTIC, Point Nuc, A and c from libtc


 EXCHANGE COEFFICIENT=  0.7000000           TAIL CORRECTION=  0.           NUCLEAR RADIUS=  0.000E+00
0                       ORBITAL    N    L    J     ELECTRONS     EIGENVALUE                DELTA OF EIGENV.

                          1S1/2  1.0  0.0  0.5     1.000       -0.2039397E+00                 0.2720093E-06


                                        NUCLEAR CHARGE=    1.000000
                            INTEGRAL OF CHARGE DENSITY=    1.000000
                           SUM OF THE ORBITAL ENERGIES=     -0.2039
                                          TOTAL ENERGY=     -0.4160
                                        KINETIC ENERGY=      0.4160
                             NUCLEAR ATTRACTION ENERGY=     -0.9108
                             ELECTRON REPULSION ENERGY=      0.2787
                                       EXCHANGE ENERGY=     -0.2000

 *******************************************************************************

                             D I R A C   E X I T
 NORMAL TERMINATION



 =================
 Timing Statistics
 =================
  
 Total Used :                     CPU=        0.08      System=        0.03     Elapsed=        0.12

 Calls  Section                     ( Mean, Percentage )
 ---------------------------------------------------------------------------------------------------
     2  ><      ................      0.00    0.00             0.00    0.00             0.00    0.00
     1  EXIT PROCEDURE .........      0.08  100.00             0.03  100.00             0.12  100.00


 Currently Open Files (EXIT00)
 ====================

 Unit    Access Format  Status   Type       Ident (file)
 -------------------------------------------------------
   3      SEQ    FORM   TRANSP  NORMAL      LOGFILE
                                          ( logfile )
 
Create H   file=DZP-H
XC
  GGA PBE
End
relativistic ZORA
Corepotentials t12.rel
End

 *******************************************************************************
 *                                                                             *
 *  --------------------------------                                           *
 *   Amsterdam Modeling Suite (AMS)              2019.303                      *
 *  --------------------------------                                           *
 *                                               r81909 2020-02-21             *
 *                                                                             *
 *                                                                             *
 *                              =================                              *
 *                              |               |                              *
 *                              |     A D F     |                              *
 *                              |               |                              *
 *                              =================                              *
 *                                                                             *
 *                                                                             *
 *   Online information and documentation:  https://www.scm.com/support/       *
 *   E-mail:  support@scm.com   info@scm.com                                   *
 *                                                                             *
 *   Scientific publications using AMS results must be properly referenced     *
 *   See the User Manuals (or the web site) for recommended citations          *
 *   The terms and conditions of the End User License Agreement apply to       *
 *   the use of AMS, https://www.scm.com/license-terms/                        *
 *                                                                             *
 *********************  x86_64_windows_intel / intelmpi  ***********************
 
 Licensed to: Student project account / Theoretische chemie, Vrije Universiteit / Amsterdam / NETHERLANDS
 SCM User ID: u20153
  
 ADF 2019.303  RunTime: Apr01-2020 20:47:55  Nodes: 1  Procs: 1

 Temporary files are created in D:\SCMTMP\/kid_0.1639728278
 Hydrogen (DZP)



 ===========================
 A T T A C H E D   F I L E S
 ===========================
  
 CREATE - Data File:    DZP-H
                        Hydrogen (DZP)
 Core Potentials:
         file : t12.rel



 ===============================
 M O D E L   P A R A M E T E R S
 ===============================
  
 DENSITY FUNCTIONAL POTENTIAL (scf)
    LDA:                               PW92                                    == Not Default ==
    Gradient Corrections:              PBEc PBEx                               == Not Default ==

 SPIN  (restricted / unrestr.)
    Molecule:                          Restricted                               

 OTHER ASPECTS
    Relativistic Corrections:          scalar (ZORA,MAPA)                      == Not Default ==

    Nuclear Charge Density Model:      Point Charge Nuclei                      
    Core Treatment:                    Frozen Orbital(s)                        

    Hyperfine or Zeeman Interaction:   ---                                      



 =====================================
 S Y M M E T R Y ,   E L E C T R O N S
 =====================================
  
 Symmetry: ATOM

 Irreducible Representations, including subspecies
 -------------------------------------------------
 S
 P:x  P:y  P:z
 D:z2  D:x2-y2  D:xy  D:xz  D:yz
 F:z3  F:z  F:xyz  F:z2x  F:z2y  F:x  F:y


 Configuration of Valence Electrons
 ==================================

          Occupation Numbers
          -------------------------------------------------
 S        1
 P        0
 D        0
 F        0
          -------------------------------------------------

 Total:   1

 Net Charge: 0 (Nuclei minus Electrons)

 Preset values for MO occupations will be applied through SCF cycle no. 1000000
 Thereafter, the program will assign electrons to MOs that are spatially
 similar to the occupied MOs in a "reference" cycle ("KeepOrbitals").
 The reference cycle is always the PREVIOUS cycle: it will evolve with
 the SCF procedure.



 ================================
 (Slater-type)  F U N C T I O N S  ***  (Basis and Fit)  ***
 ================================
  

 Atom Type    1  (H)
 ==============

 Valence Basis Sets:   3
 -----------------------
   1 S    0.760000
   1 S    1.280000
   2 P    1.250000


 BAS: List of all Elementary Cartesian Basis Functions
 =====================================================

 The numbering in the list below (to the right of the function characteristics) is referred
 to in print-outs of MO eigenvectors and Mulliken populations in the BAS representation
 (as contrasted to the SFO representation).

 Notes:
 1. The functions are characterized by a polynomial prefactor (powers of x,y,z and r) and
    an exponential decay factor alpha.
 2. Since the basis sets are specific for an atom TYPE, the individual functions occur on
    all atoms of that type.
 3. The word 'Core' in the left margin signals that it is a Core Function (CF) : not a
    degree of freedom in the valence set, but only used to ensure orthogonalization of
    the other valence basis functions on the frozen Core Orbitals.


 (power of) X  Y  Z  R     Alpha  on Atom
            ==========     =====     ==========

 H                                    1
                                  ---------------------------------------------------------------------------
            0  0  0  0     0.760      1
            0  0  0  0     1.280      2
            1  0  0  0     1.250      3
            0  1  0  0     1.250      4
            0  0  1  0     1.250      5

 Total number of charge fitting functions (nprimf)        50
 Total number of Cartesian basis functions (naos)          5
 Total number of Cartesian core functions  (ncos)          0



 BAS: List of all Elementary Cartesian Basis Functions
 =====================================================

 The numbering in the list below (to the right of the function characteristics) is referred
 to in print-outs of MO eigenvectors and Mulliken populations in the BAS representation
 (as contrasted to the SFO representation).

 Notes:
 1. The functions are characterized by a polynomial prefactor (powers of x,y,z and r) and
    an exponential decay factor alpha.
 2. Since the basis sets are specific for an atom TYPE, the individual functions occur on
    all atoms of that type.
 3. The word 'Core' in the left margin signals that it is a Core Function (CF) : not a
    degree of freedom in the valence set, but only used to ensure orthogonalization of
    the other valence basis functions on the frozen Core Orbitals.


 (power of) X  Y  Z  R     Alpha  on Atom
            ==========     =====     ==========

 H                                    1
                                  ---------------------------------------------------------------------------
            0  0  0  0     0.760      1
            0  0  0  0     1.280      2
            1  0  0  0     1.250      3
            0  1  0  0     1.250      4
            0  0  1  0     1.250      5
1
 ***************************************************************************************************



                                              ***********************
                                              *  T E C H N I C A L  *
                                              ***********************
  



 =============================================================
 P A R A L L E L I Z A T I O N  and  V E C T O R I Z A T I O N
 =============================================================
  
 Nr of parallel processes:                                1
 Maximum vector length in NumInt loops:                 128



 =====================
 S C F   U P D A T E S
 =====================
  
 Max. nr. of cycles:                               300
 Convergence criterion:                              0.0000000100
   secondary criterion:                              0.0000000100

 Mix parameter (when DIIS does not apply):           0.2000000000
 Special mix parameter for the first cycle:          1.0000000000
 Mixed ADIIS+SDIIS will be used                  
    Max number of expansion vectors:                10
    Pure ADIIS when Max([F,P]) is above              0.1000000000
    Pure SDIIS when Max([F,P]) is below              0.0010000000
 Automatic ElectronSmearing (in case of problematic SCF convergence) disabled



 =================
 P R E C I S I O N  ***  (General: NumInt, NeglectFunctionTails, ...)  ***
 =================
  

 NumInt:           Target precision:                12.0000000000
 -------           Initial precision:               10.0000000000
                   Min. precision (optimization):   10.0000000000

 Neglect Functions:          Basis functions:        0.1000000000E-13
 ------------------          Fit functions:          0.1000000000E-13



 ===========================
 L I N E A R   S C A L I N G
 ===========================
  

 Cut-off radii density fit:                        0.1000000000E-97
 Overlap cut-off criterion AO matrix elements:     0.1000000000E-97
 Cut-offs for Coulomb potential and fitted density:0.1000000000E-97
 Cut-off criterion for Coulomb multipole terms:    0.1000000000E-97
 Progressive Convergence parameter:                 0.000000000    
1
 ***************************************************************************************************



                                            ***************************
                                            *  C O M P U T A T I O N  *
                                            ***************************
  

 Number of elements of the density matrix on this node (used, total):        15        15



 ===========================================
 Numerical Integration : Fuzzy Cells (Becke)
 ===========================================
  
 Becke grid quality: VERYGOOD       
  
 Lebedev angular grid order:             min:  13 max:  41
 Nr. of radial points:                   min:  64 max:  64

 Total nr. of points:         64
 Nr. of blocks:                1
 Block length:                64
 Nr. of dummy points:          0


 Test of Precision of the Numerical Integration Grid
 ===================================================

 Integral of the Total Core Density:                   0.00000000000000



 ========================
 Density Fitting (zlmFit)
 ========================
  
 ZlmFit Fit Quality: VERYGOOD       
  
 Max L-expansion:                        min:   0 max:   0
 Nr. of radial interpolation points:     min: 120 max: 120



 =====
 S C F  ***  ScaSCF  ***
 =====
  

 CYCLE    1
 SCF Error: norm([F,P])=      0.000000000000, max([F,P])=      0.000000000000
 orbitals (Q,E):
 ---------------
 S :1...2            ( 1.00    -0.4983)  ( 0.00     0.1718)
 P :1...1            ( 0.00     0.1562)

 CYCLE    2
 SCF Error: norm([F,P])=      0.033001933656, max([F,P])=      0.033001933656
 orbitals (Q,E):
 ---------------
 S :1...2            ( 1.00    -0.2268)  ( 0.00     0.4005)
 P :1...1            ( 0.00     0.4153)

 CYCLE    3
  SDIIS (wt  0.000):  0.1528  0.8472
 A-DIIS (wt  1.000):  0.0000  1.0000
  DIIS coefficients:  0.0000  1.0000
 SCF Error: norm([F,P])=      0.005954454000, max([F,P])=      0.005954454000
 orbitals (Q,E):
 ---------------
 S :1...2            ( 1.00    -0.2417)  ( 0.00     0.3884)
 P :1...1            ( 0.00     0.4029)

 CYCLE    4
  SDIIS (wt  1.000):  0.1463  0.8537
 A-DIIS (wt  0.000):  0.0000  1.0000
  DIIS coefficients:  0.1463  0.8537
 SCF Error: norm([F,P])=      0.001020399433, max([F,P])=      0.001020399433
 orbitals (Q,E):
 ---------------
 S :1...2            ( 1.00    -0.2394)  ( 0.00     0.3902)
 P :1...1            ( 0.00     0.4048)

 CYCLE    5
  SDIIS (wt  1.000):  0.0014  0.9986
  DIIS coefficients:  0.0014  0.9986
 SCF Error: norm([F,P])=      0.000001436995, max([F,P])=      0.000001436995
 orbitals (Q,E):
 ---------------
 S :1...2            ( 1.00    -0.2394)  ( 0.00     0.3902)
 P :1...1            ( 0.00     0.4048)

 CYCLE    6
  SDIIS (wt  1.000): -0.0002  1.0002
  DIIS coefficients: -0.0002  1.0002
 SCF Error: norm([F,P])=      0.000000000334, max([F,P])=      0.000000000334
 orbitals (Q,E):
 ---------------
 S :1...2            ( 1.00    -0.2394)  ( 0.00     0.3902)
 P :1...1            ( 0.00     0.4048)

 SCF CONVERGED

 CYCLE    7
1
 ***************************************************************************************************



                                                *******************
                                                *  R E S U L T S  *
                                                *******************
  
 *** Using FIT density in Focky
  SDIIS (wt  1.000):  0.0000  1.0000
  DIIS coefficients:  0.0000  1.0000
 SCF Error: norm([F,P])=      0.000000000000, max([F,P])=      0.000000000000

 Scaled ZORA Orbital Energies, per Irrep and Spin:
 =================================================
                        Occup              E (au)              E (eV)       Diff (eV) with prev. cycle
                        -----      --------------------        ------       --------------------------
 S
               1        1.000     -0.23939248892723E+00        -6.514               7.55E-15
               2        0.000      0.39021645958605E+00        10.618
 P
               1        0.000      0.40480887453077E+00        11.015


 Partially Occupied:
               1 S                -0.23939248892723E+00
  
 LUMO :        2 S                 0.39021645958605E+00
  


 Orbital Energies, all Irreps
 ========================================

 Irrep        no.  (spin)   Occup              E (au)                E (eV)
 ---------------------------------------------------------------------------
 S             1             1.00       -0.23939248892723E+00        -6.5142
 S             2             0.00        0.39021645958605E+00        10.6183
 P             1             0.00        0.40480887453077E+00        11.0154


 All Electron Calculation, thus no Orbital Energies of the Core Orbitals are calculated



 =======================================
 M U L L I K E N   P O P U L A T I O N S
 =======================================
  
 The survey below gives for each atom:
 a) the total charge (Z minus electrons)
 b) the net spin polarization (nr of electrons spin-A minus spin-B)
 c) for each spin the atomic electron valence density (integrated) per L-value.

 Atom              Charge    Spin density          S         P         D         F
 ----              ------    ------------       ------    ------    ------    ------
 1 H               0.0000                       1.0000    0.0000    0.0000    0.0000

 Populations of individual BAS functions
 ----------------------------------------
 1 H            0.6465  0.3535  0.0000  0.0000  0.0000

 Gross Charges per Atom (Z minus electrons)
 ==========================================
             0.0000
 Net Total:  0.00000000



 =======================================================================
 Electrostatic potential at the Nuclei due to electrons and other nuclei
 =======================================================================
  
         Atom                  Potential
         ----                  ---------
     1)   H                   0.94379605
 
 
 ========================
 No memory problems found
 ========================
 
 Maximum number of active allocate calls:         306
 
 *******************************************************************************

                             A D F   E X I T
 NORMAL TERMINATION



 =================
 Timing Statistics
 =================
  
 Total Used :                     CPU=        0.45      System=        0.14     Elapsed=        0.77

 Calls  Section                     ( Mean, Percentage )
 ---------------------------------------------------------------------------------------------------
     3  ><      ................      0.00    0.00             0.01   11.11             0.00    1.82
     1  INIT    ................      0.08   17.24             0.02   11.11             0.12   15.32
     1  GEOMET  ................      0.02    3.45             0.02   11.11             0.08   10.13
     1  INPUTA  ................      0.00    0.00             0.02   11.11             0.01    0.78
     1  MAINSY  ................      0.02    3.45             0.00    0.00             0.04    4.81
     1  SYMFIT  ................      0.00    0.00             0.00    0.00             0.00    0.13
     1  CORORT  ................      0.00    0.00             0.00    0.00             0.01    0.78
     1  SYMORB  ................      0.02    3.45             0.00    0.00             0.01    0.78
     1  CLSMAT  ................      0.00    0.00             0.00    0.00             0.01    1.69
     1  ORTHON  ................      0.02    3.45             0.00    0.00             0.01    1.69
     1  GENPT   ................      0.02    3.45             0.00    0.00             0.04    5.06
     1  PTBAS   ................      0.02    3.45             0.00    0.00             0.02    3.12
     7  FOCKY   ................      0.03   48.28             0.01   33.33             0.04   35.33
     7  FOCKTR  ................      0.00    0.00             0.00    0.00             0.00    0.91
     7  SDIIS   ................      0.00    6.90             0.00   11.11             0.01    9.22
     1  COREPS  ................      0.02    3.45             0.00    0.00             0.02    2.60
     1  POPAN   ................      0.02    3.45             0.00    0.00             0.01    1.69
     1  DEBYE   ................      0.00    0.00             0.00    0.00             0.01    1.04
     1  EXIT PROCEDURE .........      0.00    0.00             0.02   11.11             0.02    3.12


 Currently Open Files (EXIT00)
 ====================

 Unit    Access Format  Status   Type       Ident (file)
 -------------------------------------------------------
   3      SEQ    FORM   TRANSP  NORMAL      LOGFILE
                                          ( logfile )

 ***************************************************************************************************
 (LOGFILE)
 <Apr01-2020> <20:47:55>  DIRAC 2019.303  RunTime: Apr01-2020 20:47:55  Nodes: 1  Procs: 1
 <Apr01-2020> <20:47:55>  NORMAL TERMINATION
 <Apr01-2020> <20:47:55>  END
 <Apr01-2020> <20:47:55>  ADF 2019.303  RunTime: Apr01-2020 20:47:55  Nodes: 1  Procs: 1
 <Apr01-2020> <20:47:55>  Hydrogen (DZP)
 <Apr01-2020> <20:47:55>  RunType   : CREATE
 <Apr01-2020> <20:47:55>  Net Charge: 0 (Nuclei minus Electrons)
 <Apr01-2020> <20:47:55>  Symmetry  : ATOM
  Coordinates
    Atom         X           Y           Z   (Angstrom)
    1.H         0.000000    0.000000    0.000000
 <Apr01-2020> <20:47:55>  >>>> CORORT
 <Apr01-2020> <20:47:55>  >>>> CLSMAT
 <Apr01-2020> <20:47:55>  >>>> ORTHON
 <Apr01-2020> <20:47:55>  >>>> GENPT
 <Apr01-2020> <20:47:55>  Block Length=  64
 <Apr01-2020> <20:47:55>  >>>> PTBAS
 <Apr01-2020> <20:47:55>  >>>> CYCLE
 <Apr01-2020> <20:47:55>              |Error|         MaxErr       Wt(A-DIIS)
 <Apr01-2020> <20:47:55>      1      0.00000000      0.00000000
 <Apr01-2020> <20:47:55>      2      0.03300193      0.03300193
 <Apr01-2020> <20:47:55>      3      0.00595445      0.00595445    100.0
 <Apr01-2020> <20:47:55>      4      0.00102040      0.00102040      0.0
 <Apr01-2020> <20:47:55>      5      0.00000144      0.00000144      0.0
 <Apr01-2020> <20:47:55>      6      0.00000000      0.00000000      0.0
 <Apr01-2020> <20:47:55>  SCF converged
 <Apr01-2020> <20:47:56>      7      0.00000000      0.00000000      0.0
 <Apr01-2020> <20:47:56>  >>>> POPAN
 <Apr01-2020> <20:47:56>  >>>> DEBYE
 <Apr01-2020> <20:47:56>  NORMAL TERMINATION
 <Apr01-2020> <20:47:56>  END

 *******************************************************************************
 *                                                                             *
 *  --------------------------------                                           *
 *   Amsterdam Modeling Suite (AMS)              2019.303                      *
 *  --------------------------------                                           *
 *                                               r81909 2020-02-21             *
 *                                                                             *
 *                                                                             *
 *                            =====================                            *
 *                            |                   |                            *
 *                            |     D I R A C     |                            *
 *                            |                   |                            *
 *                            =====================                            *
 *                                                                             *
 *                                                                             *
 *   Online information and documentation:  https://www.scm.com/support/       *
 *   E-mail:  support@scm.com   info@scm.com                                   *
 *                                                                             *
 *   Scientific publications using AMS results must be properly referenced     *
 *   See the User Manuals (or the web site) for recommended citations          *
 *   The terms and conditions of the End User License Agreement apply to       *
 *   the use of AMS, https://www.scm.com/license-terms/                        *
 *                                                                             *
 *********************  x86_64_windows_intel / intelmpi  ***********************
 
 Licensed to: Student project account / Theoretische chemie, Vrije Universiteit / Amsterdam / NETHERLANDS
 SCM User ID: u20153
  
 DIRAC 2019.303  RunTime: Apr01-2020 20:47:56  Nodes: 1  Procs: 1

 Temporary files are created in D:\SCMTMP\/kid_0.700732369
1
 CARBON ATOM all electron RELATIVISTIC, Point Nuc, A and c fr
 N J RN H ZN XION ANUC CLIGHT
 5000    4100.00000000197.36710137  6.00000000  0.00000000   12.000000  0.1370360E+03
  PH   PHI     EPS        DEL        DELRVR
  0.30  0.30     2500.00  0.00001000  0.00001000
 IDIRC  NC1  NDEBU NPRIN  IPUN IRCOR IWCOR
   1   300     0     0     0     0     0
   XALPHA      XLATTER      RNUC
  0.70000000  0.00000000  0.00000000 Point Charge
   XN   XL   XJ      XE          XZ      XDELL
  1.0  0.0  0.5      -5.000       2.000     0.00000
  2.0  0.0  0.5      -1.000       2.000     0.00000
  2.0  1.0  0.5      -1.000       2.000     0.00000
  2.0  1.0  1.5      -1.000       0.000     0.00000
 ICORP=  0  NPCL=  0  DEMP=0.00  PEPS=0.000000
 R(1)=  0.1000000E-08 D=  0.1005080E+01 RNUC=  0.0000000E+00
 converged at cycle   26  DENSITY AVERAGING    0.3000
  MAXIMUM ERROR IN R.V(R) IS   0.55010513E-05
 Q,EY,EV,EZ,ESUM,ETOT,RHO  0.600000E+01 -0.610129E+01 -0.585189E+02 -0.876464E+02 -0.211985E+02 -0.372876E+02  0.164808E-14


 DIRAC CALCULATION
1                    CARBON ATOM all electron RELATIVISTIC, Point Nuc, A and c from libtc


 EXCHANGE COEFFICIENT=  0.7000000           TAIL CORRECTION=  0.           NUCLEAR RADIUS=  0.000E+00
0                       ORBITAL    N    L    J     ELECTRONS     EIGENVALUE                DELTA OF EIGENV.

                          1S1/2  1.0  0.0  0.5     2.000       -0.9959611E+01                 0.1355092E-04
                          2S1/2  2.0  0.0  0.5     2.000       -0.4708542E+00                 0.1106918E-05
                          2P1/2  2.0  1.0  0.5     2.000       -0.1687896E+00                 0.8770186E-06
                          2P3/2  2.0  1.0  1.5     0.000       -0.1684646E+00                 0.8770830E-06


                                        NUCLEAR CHARGE=    6.000000
                            INTEGRAL OF CHARGE DENSITY=    6.000000
                           SUM OF THE ORBITAL ENERGIES=    -21.1985
                                          TOTAL ENERGY=    -37.2876
                                        KINETIC ENERGY=     37.3204
                             NUCLEAR ATTRACTION ENERGY=    -87.6464
                             ELECTRON REPULSION ENERGY=     17.6144
                                       EXCHANGE ENERGY=     -4.5760

 *******************************************************************************

                             D I R A C   E X I T
 NORMAL TERMINATION



 =================
 Timing Statistics
 =================
  
 Total Used :                     CPU=        0.14      System=        0.02     Elapsed=        0.15

 Calls  Section                     ( Mean, Percentage )
 ---------------------------------------------------------------------------------------------------
     2  ><      ................      0.00    0.00             0.00    0.00             0.00    0.00
     1  EXIT PROCEDURE .........      0.14  100.00             0.02  100.00             0.15  100.00


 Currently Open Files (EXIT00)
 ====================

 Unit    Access Format  Status   Type       Ident (file)
 -------------------------------------------------------
   3      SEQ    FORM   TRANSP  NORMAL      LOGFILE
                                          ( logfile )
 
Create C   file=DZP-C
XC
  GGA PBE
End
relativistic ZORA
Corepotentials t12.rel
End

 *******************************************************************************
 *                                                                             *
 *  --------------------------------                                           *
 *   Amsterdam Modeling Suite (AMS)              2019.303                      *
 *  --------------------------------                                           *
 *                                               r81909 2020-02-21             *
 *                                                                             *
 *                                                                             *
 *                              =================                              *
 *                              |               |                              *
 *                              |     A D F     |                              *
 *                              |               |                              *
 *                              =================                              *
 *                                                                             *
 *                                                                             *
 *   Online information and documentation:  https://www.scm.com/support/       *
 *   E-mail:  support@scm.com   info@scm.com                                   *
 *                                                                             *
 *   Scientific publications using AMS results must be properly referenced     *
 *   See the User Manuals (or the web site) for recommended citations          *
 *   The terms and conditions of the End User License Agreement apply to       *
 *   the use of AMS, https://www.scm.com/license-terms/                        *
 *                                                                             *
 *********************  x86_64_windows_intel / intelmpi  ***********************
 
 Licensed to: Student project account / Theoretische chemie, Vrije Universiteit / Amsterdam / NETHERLANDS
 SCM User ID: u20153
  
 ADF 2019.303  RunTime: Apr01-2020 20:47:56  Nodes: 1  Procs: 1

 Temporary files are created in D:\SCMTMP\/kid_0.1475862507
 Carbon (DZP)



 ===========================
 A T T A C H E D   F I L E S
 ===========================
  
 CREATE - Data File:    DZP-C
                        Carbon (DZP)
 Core Potentials:
         file : t12.rel



 ===============================
 M O D E L   P A R A M E T E R S
 ===============================
  
 DENSITY FUNCTIONAL POTENTIAL (scf)
    LDA:                               PW92                                    == Not Default ==
    Gradient Corrections:              PBEc PBEx                               == Not Default ==

 SPIN  (restricted / unrestr.)
    Molecule:                          Restricted                               

 OTHER ASPECTS
    Relativistic Corrections:          scalar (ZORA,MAPA)                      == Not Default ==

    Nuclear Charge Density Model:      Point Charge Nuclei                      
    Core Treatment:                    Frozen Orbital(s)                        

    Hyperfine or Zeeman Interaction:   ---                                      



 =====================================
 S Y M M E T R Y ,   E L E C T R O N S
 =====================================
  
 Symmetry: ATOM

 Irreducible Representations, including subspecies
 -------------------------------------------------
 S
 P:x  P:y  P:z
 D:z2  D:x2-y2  D:xy  D:xz  D:yz
 F:z3  F:z  F:xyz  F:z2x  F:z2y  F:x  F:y


 Configuration of Valence Electrons
 ==================================

          Occupation Numbers
          -------------------------------------------------
 S        2*2
 P        2
 D        0
 F        0
          -------------------------------------------------

 Total:   6

 Net Charge: 0 (Nuclei minus Electrons)

 Preset values for MO occupations will be applied through SCF cycle no. 1000000
 Thereafter, the program will assign electrons to MOs that are spatially
 similar to the occupied MOs in a "reference" cycle ("KeepOrbitals").
 The reference cycle is always the PREVIOUS cycle: it will evolve with
 the SCF procedure.



 ================================
 (Slater-type)  F U N C T I O N S  ***  (Basis and Fit)  ***
 ================================
  

 Atom Type    1  (C)
 ==============

 Valence Basis Sets:   7
 -----------------------
   1 S    7.680000
   1 S    5.000000
   2 S    1.980000
   2 S    1.240000
   2 P    2.200000
   2 P    0.960000
   3 D    2.200000


 BAS: List of all Elementary Cartesian Basis Functions
 =====================================================

 The numbering in the list below (to the right of the function characteristics) is referred
 to in print-outs of MO eigenvectors and Mulliken populations in the BAS representation
 (as contrasted to the SFO representation).

 Notes:
 1. The functions are characterized by a polynomial prefactor (powers of x,y,z and r) and
    an exponential decay factor alpha.
 2. Since the basis sets are specific for an atom TYPE, the individual functions occur on
    all atoms of that type.
 3. The word 'Core' in the left margin signals that it is a Core Function (CF) : not a
    degree of freedom in the valence set, but only used to ensure orthogonalization of
    the other valence basis functions on the frozen Core Orbitals.


 (power of) X  Y  Z  R     Alpha  on Atom
            ==========     =====     ==========

 C                                    1
                                  ---------------------------------------------------------------------------
            0  0  0  0     7.680      1
            0  0  0  0     5.000      2
            0  0  0  1     1.980      3
            0  0  0  1     1.240      4
            1  0  0  0     2.200      5
            0  1  0  0     2.200      6
            0  0  1  0     2.200      7
            1  0  0  0     0.960      8
            0  1  0  0     0.960      9
            0  0  1  0     0.960     10
            2  0  0  0     2.200     11
            1  1  0  0     2.200     12
            1  0  1  0     2.200     13
            0  2  0  0     2.200     14
            0  1  1  0     2.200     15
            0  0  2  0     2.200     16

 Total number of charge fitting functions (nprimf)        84
 Total number of Cartesian basis functions (naos)         16
 Total number of Cartesian core functions  (ncos)          0



 BAS: List of all Elementary Cartesian Basis Functions
 =====================================================

 The numbering in the list below (to the right of the function characteristics) is referred
 to in print-outs of MO eigenvectors and Mulliken populations in the BAS representation
 (as contrasted to the SFO representation).

 Notes:
 1. The functions are characterized by a polynomial prefactor (powers of x,y,z and r) and
    an exponential decay factor alpha.
 2. Since the basis sets are specific for an atom TYPE, the individual functions occur on
    all atoms of that type.
 3. The word 'Core' in the left margin signals that it is a Core Function (CF) : not a
    degree of freedom in the valence set, but only used to ensure orthogonalization of
    the other valence basis functions on the frozen Core Orbitals.


 (power of) X  Y  Z  R     Alpha  on Atom
            ==========     =====     ==========

 C                                    1
                                  ---------------------------------------------------------------------------
            0  0  0  0     7.680      1
            0  0  0  0     5.000      2
            0  0  0  1     1.980      3
            0  0  0  1     1.240      4
            1  0  0  0     2.200      5
            0  1  0  0     2.200      6
            0  0  1  0     2.200      7
            1  0  0  0     0.960      8
            0  1  0  0     0.960      9
            0  0  1  0     0.960     10
            2  0  0  0     2.200     11
            1  1  0  0     2.200     12
            1  0  1  0     2.200     13
            0  2  0  0     2.200     14
            0  1  1  0     2.200     15
            0  0  2  0     2.200     16
1
 ***************************************************************************************************



                                              ***********************
                                              *  T E C H N I C A L  *
                                              ***********************
  



 =============================================================
 P A R A L L E L I Z A T I O N  and  V E C T O R I Z A T I O N
 =============================================================
  
 Nr of parallel processes:                                1
 Maximum vector length in NumInt loops:                 128



 =====================
 S C F   U P D A T E S
 =====================
  
 Max. nr. of cycles:                               300
 Convergence criterion:                              0.0000000100
   secondary criterion:                              0.0000000100

 Mix parameter (when DIIS does not apply):           0.2000000000
 Special mix parameter for the first cycle:          1.0000000000
 Mixed ADIIS+SDIIS will be used                  
    Max number of expansion vectors:                10
    Pure ADIIS when Max([F,P]) is above              0.1000000000
    Pure SDIIS when Max([F,P]) is below              0.0010000000
 Automatic ElectronSmearing (in case of problematic SCF convergence) disabled



 =================
 P R E C I S I O N  ***  (General: NumInt, NeglectFunctionTails, ...)  ***
 =================
  

 NumInt:           Target precision:                12.0000000000
 -------           Initial precision:               10.0000000000
                   Min. precision (optimization):   10.0000000000

 Neglect Functions:          Basis functions:        0.1000000000E-13
 ------------------          Fit functions:          0.1000000000E-13



 ===========================
 L I N E A R   S C A L I N G
 ===========================
  

 Cut-off radii density fit:                        0.1000000000E-97
 Overlap cut-off criterion AO matrix elements:     0.1000000000E-97
 Cut-offs for Coulomb potential and fitted density:0.1000000000E-97
 Cut-off criterion for Coulomb multipole terms:    0.1000000000E-97
 Progressive Convergence parameter:                 0.000000000    
1
 ***************************************************************************************************



                                            ***************************
                                            *  C O M P U T A T I O N  *
                                            ***************************
  

 Number of elements of the density matrix on this node (used, total):       136       136



 ===========================================
 Numerical Integration : Fuzzy Cells (Becke)
 ===========================================
  
 Becke grid quality: VERYGOOD       
  
 Lebedev angular grid order:             min:  13 max:  41
 Nr. of radial points:                   min:  72 max:  72

 Total nr. of points:         72
 Nr. of blocks:                1
 Block length:                72
 Nr. of dummy points:          0


 Test of Precision of the Numerical Integration Grid
 ===================================================

 Integral of the Total Core Density:                   0.00000000000000



 ========================
 Density Fitting (zlmFit)
 ========================
  
 ZlmFit Fit Quality: VERYGOOD       
  
 Max L-expansion:                        min:   0 max:   0
 Nr. of radial interpolation points:     min: 160 max: 160



 =====
 S C F  ***  ScaSCF  ***
 =====
  

 CYCLE    1
 SCF Error: norm([F,P])=      0.000000000000, max([F,P])=      0.000000000000
 orbitals (Q,E):
 ---------------
 S :1...4            ( 2.00   -17.9904)  ( 2.00    -4.3790)  ( 0.00    -1.9023)  ( 0.00    14.7299)
 P :1...2            ( 2.00    -4.2577)  ( 0.00    -1.7536)
 D :1...1            ( 0.00    -1.9800)

 CYCLE    2
 SCF Error: norm([F,P])=      3.727008238743, max([F,P])=      2.806949130152
 orbitals (Q,E):
 ---------------
 S :1...3            ( 2.00    -8.5647)  ( 2.00    -0.1226)  ( 0.00     0.8014)
 P :1...2            ( 2.00     0.1197)  ( 0.00     0.9563)
 D :1...1            ( 0.00     1.6337)

 CYCLE    3
  SDIIS (wt  0.000):  0.1863  0.8137
 A-DIIS (wt  1.000):  0.0525  0.9475
  DIIS coefficients:  0.0525  0.9475
 SCF Error: norm([F,P])=      1.071636001896, max([F,P])=      0.926529415312
 orbitals (Q,E):
 ---------------
 S :1...3            ( 2.00   -10.7786)  ( 2.00    -0.7910)  ( 0.00     0.2323)
 P :1...2            ( 2.00    -0.4748)  ( 0.00     0.2422)
 D :1...1            ( 0.00     0.9779)

 CYCLE    4
  SDIIS (wt  0.000):  0.3317  0.6683
 A-DIIS (wt  1.000):  0.1755  0.8245
  DIIS coefficients:  0.1755  0.8245
 SCF Error: norm([F,P])=      0.545115533412, max([F,P])=      0.428279404247
 orbitals (Q,E):
 ---------------
 S :1...3            ( 2.00    -9.8029)  ( 2.00    -0.4255)  ( 0.00     0.4761)
 P :1...2            ( 2.00    -0.1210)  ( 0.00     0.5318)
 D :1...1            ( 0.00     1.3122)

 CYCLE    5
  SDIIS (wt  0.000): -0.0363  0.2391  0.7973
 A-DIIS (wt  1.000):  0.0000  0.0000  1.0000
  DIIS coefficients:  0.0000  0.0000  1.0000
 SCF Error: norm([F,P])=      0.210904457265, max([F,P])=      0.173356992093
 orbitals (Q,E):
 ---------------
 S :1...3            ( 2.00   -10.2470)  ( 2.00    -0.5827)  ( 0.00     0.3614)
 P :1...2            ( 2.00    -0.2650)  ( 0.00     0.3878)
 D :1...1            ( 0.00     1.1636)

 CYCLE    6
  SDIIS (wt  0.000): -0.0073 -0.0845  0.3606  0.7312
 A-DIIS (wt  1.000):  0.0000  0.0000  0.3280  0.6720
  DIIS coefficients:  0.0000  0.0000  0.3280  0.6720
 SCF Error: norm([F,P])=      0.156317373022, max([F,P])=      0.125164812022
 orbitals (Q,E):
 ---------------
 S :1...3            ( 2.00   -10.0219)  ( 2.00    -0.4999)  ( 0.00     0.4194)
 P :1...2            ( 2.00    -0.1872)  ( 0.00     0.4587)
 D :1...1            ( 0.00     1.2407)

 CYCLE    7
  SDIIS (wt  0.786): -0.0009 -0.0058 -0.0294  0.1327  0.9034
 A-DIIS (wt  0.214):  0.0000  0.0000  0.0000  0.0000  1.0000
  DIIS coefficients: -0.0007 -0.0045 -0.0231  0.1043  0.9241
 SCF Error: norm([F,P])=      0.027373873641, max([F,P])=      0.022209604150
 orbitals (Q,E):
 ---------------
 S :1...3            ( 2.00   -10.0600)  ( 2.00    -0.5134)  ( 0.00     0.4096)
 P :1...2            ( 2.00    -0.1996)  ( 0.00     0.4465)
 D :1...1            ( 0.00     1.2280)

 CYCLE    8
  SDIIS (wt  0.975):  0.0000  0.0007  0.0014 -0.0159  0.0641  0.9497
 A-DIIS (wt  0.025):  0.0000  0.0000  0.0000  0.0000  0.0000  1.0000
  DIIS coefficients:  0.0000  0.0007  0.0013 -0.0155  0.0625  0.9510
 SCF Error: norm([F,P])=      0.004363804775, max([F,P])=      0.003523668371
 orbitals (Q,E):
 ---------------
 S :1...3            ( 2.00   -10.0546)  ( 2.00    -0.5114)  ( 0.00     0.4110)
 P :1...2            ( 2.00    -0.1977)  ( 0.00     0.4482)
 D :1...1            ( 0.00     1.2299)

 CYCLE    9
  SDIIS (wt  1.000):  0.0000  0.0000 -0.0002  0.0008  0.0022  0.9973
  DIIS coefficients:  0.0000  0.0000 -0.0002  0.0008  0.0022  0.9973
 SCF Error: norm([F,P])=      0.000084420651, max([F,P])=      0.000068071226
 orbitals (Q,E):
 ---------------
 S :1...3            ( 2.00   -10.0547)  ( 2.00    -0.5115)  ( 0.00     0.4110)
 P :1...2            ( 2.00    -0.1978)  ( 0.00     0.4482)
 D :1...1            ( 0.00     1.2299)

 CYCLE   10
  SDIIS (wt  1.000):  0.0000  0.0005  0.0257  0.9739
  DIIS coefficients:  0.0000  0.0005  0.0257  0.9739
 SCF Error: norm([F,P])=      0.000000088318, max([F,P])=      0.000000072114
 orbitals (Q,E):
 ---------------
 S :1...3            ( 2.00   -10.0547)  ( 2.00    -0.5115)  ( 0.00     0.4110)
 P :1...2            ( 2.00    -0.1978)  ( 0.00     0.4482)
 D :1...1            ( 0.00     1.2299)

 CYCLE   11
  SDIIS (wt  1.000):  0.0000 -0.0006  1.0006
  DIIS coefficients:  0.0000 -0.0006  1.0006
 SCF Error: norm([F,P])=      0.000000000556, max([F,P])=      0.000000000459
 orbitals (Q,E):
 ---------------
 S :1...3            ( 2.00   -10.0547)  ( 2.00    -0.5115)  ( 0.00     0.4110)
 P :1...2            ( 2.00    -0.1978)  ( 0.00     0.4482)
 D :1...1            ( 0.00     1.2299)

 SCF CONVERGED

 CYCLE   12
1
 ***************************************************************************************************



                                                *******************
                                                *  R E S U L T S  *
                                                *******************
  
 *** Using FIT density in Focky
  SDIIS (wt  1.000):  0.0001 -0.0149  1.0149
  DIIS coefficients:  0.0001 -0.0149  1.0149
 SCF Error: norm([F,P])=      0.000000000003, max([F,P])=      0.000000000003

 Scaled ZORA Orbital Energies, per Irrep and Spin:
 =================================================
                        Occup              E (au)              E (eV)       Diff (eV) with prev. cycle
                        -----      --------------------        ------       --------------------------
 S
               1        2.000     -0.10054713155207E+02      -273.603              -1.01E-10
               2        2.000     -0.51145486387664E+00       -13.917              -4.94E-11
               3        0.000      0.41102030923241E+00        11.184
               4        0.000      0.21684787085126E+02       590.073
 P
               1        2.000     -0.19778322812496E+00        -5.382              -4.55E-11
               2        0.000      0.44817551031126E+00        12.195
 D
               1        0.000      0.12298649734333E+01        33.466


 Partially Occupied:
               1 P                -0.19778322812496E+00
  
 HOMO :        2 S                -0.51145486387664E+00
 LUMO :        3 S                 0.41102030923241E+00
  


 Orbital Energies, all Irreps
 ========================================

 Irrep        no.  (spin)   Occup              E (au)                E (eV)
 ---------------------------------------------------------------------------
 S             1             2.00       -0.10054713155207E+02      -273.6027
 S             2             2.00       -0.51145486387664E+00       -13.9174
 P             1             2.00       -0.19778322812496E+00        -5.3820
 S             3             0.00        0.41102030923241E+00        11.1844
 P             2             0.00        0.44817551031126E+00        12.1955
 D             1             0.00        0.12298649734333E+01        33.4663
 S             4             0.00        0.21684787085126E+02       590.0731


 All Electron Calculation, thus no Orbital Energies of the Core Orbitals are calculated



 =======================================
 M U L L I K E N   P O P U L A T I O N S
 =======================================
  
 The survey below gives for each atom:
 a) the total charge (Z minus electrons)
 b) the net spin polarization (nr of electrons spin-A minus spin-B)
 c) for each spin the atomic electron valence density (integrated) per L-value.

 Atom              Charge    Spin density          S         P         D         F
 ----              ------    ------------       ------    ------    ------    ------
 1 C               0.0000                       4.0000    2.0000    0.0000    0.0000

 Populations of individual BAS functions
 ----------------------------------------
 1 C            0.4836  1.4983  1.2293  0.7888  0.3005  0.3005  0.3005  0.3661  0.3661  0.3661
                0.0000  0.0000  0.0000  0.0000  0.0000  0.0000

 Gross Charges per Atom (Z minus electrons)
 ==========================================
             0.0000
 Net Total:  0.00000000



 =======================================================================
 Electrostatic potential at the Nuclei due to electrons and other nuclei
 =======================================================================
  
         Atom                  Potential
         ----                  ---------
     1)   C                  14.66750974
 
 
 ========================
 No memory problems found
 ========================
 
 Maximum number of active allocate calls:         376
 
 *******************************************************************************

                             A D F   E X I T
 NORMAL TERMINATION



 =================
 Timing Statistics
 =================
  
 Total Used :                     CPU=        0.62      System=        0.14     Elapsed=        0.93

 Calls  Section                     ( Mean, Percentage )
 ---------------------------------------------------------------------------------------------------
     3  ><      ................      0.00    0.00             0.01   11.11             0.00    1.61
     1  INIT    ................      0.09   15.00             0.02   11.11             0.12   12.53
     1  GEOMET  ................      0.03    5.00             0.00    0.00             0.04    4.39
     1  INPUTA  ................      0.00    0.00             0.02   11.11             0.01    0.64
     1  MAINSY  ................      0.02    2.50             0.00    0.00             0.04    3.85
     1  SYMFIT  ................      0.00    0.00             0.00    0.00             0.00    0.11
     1  CORORT  ................      0.00    0.00             0.00    0.00             0.01    0.75
     1  SYMORB  ................      0.00    0.00             0.00    0.00             0.00    0.21
     1  CLSMAT  ................      0.02    2.50             0.00    0.00             0.01    1.39
     1  ORTHON  ................      0.00    0.00             0.00    0.00             0.01    1.28
     1  GENPT   ................      0.00    0.00             0.02   11.11             0.03    3.10
     1  PTBAS   ................      0.00    0.00             0.00    0.00             0.01    1.39
    12  FOCKY   ................      0.03   65.00             0.00   11.11             0.04   46.36
    12  FOCKTR  ................      0.00    0.00             0.00    0.00             0.00    1.39
    12  SDIIS   ................      0.00    5.00             0.00   22.22             0.01   13.28
     1  COREPS  ................      0.03    5.00             0.00    0.00             0.03    2.78
     1  POPAN   ................      0.00    0.00             0.00    0.00             0.01    1.50
     1  DEBYE   ................      0.00    0.00             0.00    0.00             0.01    0.75
     1  EXIT PROCEDURE .........      0.00    0.00             0.03   22.22             0.02    2.68


 Currently Open Files (EXIT00)
 ====================

 Unit    Access Format  Status   Type       Ident (file)
 -------------------------------------------------------
   3      SEQ    FORM   TRANSP  NORMAL      LOGFILE
                                          ( logfile )

 ***************************************************************************************************
 (LOGFILE)
 <Apr01-2020> <20:47:55>  DIRAC 2019.303  RunTime: Apr01-2020 20:47:55  Nodes: 1  Procs: 1
 <Apr01-2020> <20:47:55>  NORMAL TERMINATION
 <Apr01-2020> <20:47:55>  END
 <Apr01-2020> <20:47:55>  ADF 2019.303  RunTime: Apr01-2020 20:47:55  Nodes: 1  Procs: 1
 <Apr01-2020> <20:47:55>  Hydrogen (DZP)
 <Apr01-2020> <20:47:55>  RunType   : CREATE
 <Apr01-2020> <20:47:55>  Net Charge: 0 (Nuclei minus Electrons)
 <Apr01-2020> <20:47:55>  Symmetry  : ATOM
  Coordinates
    Atom         X           Y           Z   (Angstrom)
    1.H         0.000000    0.000000    0.000000
 <Apr01-2020> <20:47:55>  >>>> CORORT
 <Apr01-2020> <20:47:55>  >>>> CLSMAT
 <Apr01-2020> <20:47:55>  >>>> ORTHON
 <Apr01-2020> <20:47:55>  >>>> GENPT
 <Apr01-2020> <20:47:55>  Block Length=  64
 <Apr01-2020> <20:47:55>  >>>> PTBAS
 <Apr01-2020> <20:47:55>  >>>> CYCLE
 <Apr01-2020> <20:47:55>              |Error|         MaxErr       Wt(A-DIIS)
 <Apr01-2020> <20:47:55>      1      0.00000000      0.00000000
 <Apr01-2020> <20:47:55>      2      0.03300193      0.03300193
 <Apr01-2020> <20:47:55>      3      0.00595445      0.00595445    100.0
 <Apr01-2020> <20:47:55>      4      0.00102040      0.00102040      0.0
 <Apr01-2020> <20:47:55>      5      0.00000144      0.00000144      0.0
 <Apr01-2020> <20:47:55>      6      0.00000000      0.00000000      0.0
 <Apr01-2020> <20:47:55>  SCF converged
 <Apr01-2020> <20:47:56>      7      0.00000000      0.00000000      0.0
 <Apr01-2020> <20:47:56>  >>>> POPAN
 <Apr01-2020> <20:47:56>  >>>> DEBYE
 <Apr01-2020> <20:47:56>  NORMAL TERMINATION
 <Apr01-2020> <20:47:56>  END
 <Apr01-2020> <20:47:56>  DIRAC 2019.303  RunTime: Apr01-2020 20:47:56  Nodes: 1  Procs: 1
 <Apr01-2020> <20:47:56>  NORMAL TERMINATION
 <Apr01-2020> <20:47:56>  END
 <Apr01-2020> <20:47:56>  ADF 2019.303  RunTime: Apr01-2020 20:47:56  Nodes: 1  Procs: 1
 <Apr01-2020> <20:47:56>  Carbon (DZP)
 <Apr01-2020> <20:47:56>  RunType   : CREATE
 <Apr01-2020> <20:47:56>  Net Charge: 0 (Nuclei minus Electrons)
 <Apr01-2020> <20:47:56>  Symmetry  : ATOM
  Coordinates
    Atom         X           Y           Z   (Angstrom)
    1.C         0.000000    0.000000    0.000000
 <Apr01-2020> <20:47:56>  >>>> CORORT
 <Apr01-2020> <20:47:56>  >>>> CLSMAT
 <Apr01-2020> <20:47:56>  >>>> ORTHON
 <Apr01-2020> <20:47:56>  >>>> GENPT
 <Apr01-2020> <20:47:56>  Block Length=  72
 <Apr01-2020> <20:47:56>  >>>> PTBAS
 <Apr01-2020> <20:47:56>  >>>> CYCLE
 <Apr01-2020> <20:47:57>              |Error|         MaxErr       Wt(A-DIIS)
 <Apr01-2020> <20:47:57>      1      0.00000000      0.00000000
 <Apr01-2020> <20:47:57>      2      3.72700824      2.80694913
 <Apr01-2020> <20:47:57>      3      1.07163600      0.92652942    100.0
 <Apr01-2020> <20:47:57>      4      0.54511553      0.42827940    100.0
 <Apr01-2020> <20:47:57>      5      0.21090446      0.17335699    100.0
 <Apr01-2020> <20:47:57>      6      0.15631737      0.12516481    100.0
 <Apr01-2020> <20:47:57>      7      0.02737387      0.02220960     21.4
 <Apr01-2020> <20:47:57>      8      0.00436380      0.00352367      2.5
 <Apr01-2020> <20:47:57>      9      0.00008442      0.00006807      0.0
 <Apr01-2020> <20:47:57>     10      0.00000009      0.00000007      0.0
 <Apr01-2020> <20:47:57>     11      0.00000000      0.00000000      0.0
 <Apr01-2020> <20:47:57>  SCF converged
 <Apr01-2020> <20:47:57>     12      0.00000000      0.00000000      0.0
 <Apr01-2020> <20:47:57>  >>>> POPAN
 <Apr01-2020> <20:47:57>  >>>> DEBYE
 <Apr01-2020> <20:47:57>  NORMAL TERMINATION
 <Apr01-2020> <20:47:57>  END


 Parallel Execution: Process Information
 ==============================================================================
 Rank   Node Name                              NodeID   MyNodeRank  NodeMaster
    0   DESKTOP-1M8FOJT                           0          0          0
    1   DESKTOP-1M8FOJT                           0          1         -1
    2   DESKTOP-1M8FOJT                           0          2         -1
    3   DESKTOP-1M8FOJT                           0          3         -1
 ==============================================================================


May use up to 3883MB of RAM as shared memory on node 0
 
AnalyticalFreq
end

Geometry
end

Relativistic Scalar ZORA

SYMMETRY NOSYM

XC
  GGA PBE
end

atoms
      1         C     -1.213100     -0.688400      0.000000
      2         C     -1.202800      0.706400      0.000100
      3         C     -0.010300     -1.394800      0.000000
      4         C      0.010400      1.394800     -0.000100
      5         C      1.202800     -0.706300      0.000000
      6         C      1.213100      0.688400      0.000000
      7         H     -2.157700     -1.224400      0.000000
      8         H     -2.139300      1.256400      0.000100
      9         H     -0.018400     -2.480900     -0.000100
     10         H      0.018400      2.480800      0.000000
     11         H      2.139400     -1.256300      0.000100
     12         H      2.157700      1.224500      0.000000
end

Fragments
H t21.H
C t21.C
End

 *******************************************************************************
 *                                                                             *
 *  --------------------------------                                           *
 *   Amsterdam Modeling Suite (AMS)              2019.303                      *
 *  --------------------------------                                           *
 *                                               r81909 2020-02-21             *
 *                                                                             *
 *                                                                             *
 *                              =================                              *
 *                              |               |                              *
 *                              |     A D F     |                              *
 *                              |               |                              *
 *                              =================                              *
 *                                                                             *
 *                                                                             *
 *   Online information and documentation:  https://www.scm.com/support/       *
 *   E-mail:  support@scm.com   info@scm.com                                   *
 *                                                                             *
 *   Scientific publications using AMS results must be properly referenced     *
 *   See the User Manuals (or the web site) for recommended citations          *
 *   The terms and conditions of the End User License Agreement apply to       *
 *   the use of AMS, https://www.scm.com/license-terms/                        *
 *                                                                             *
 *********************  x86_64_windows_intel / intelmpi  ***********************
 
 Licensed to: Student project account / Theoretische chemie, Vrije Universiteit / Amsterdam / NETHERLANDS
 SCM User ID: u20153
  
 ADF 2019.303  RunTime: Apr01-2020 20:47:58  Nodes: 1  Procs: 4

 Temporary files are created in D:\SCMTMP\/kid_0.2066900369

Communication costs MPI_COMM_WORLD:      1.031 usec per message,   0.0075 usec per 8-byte item
Communication costs for intra-node:      1.220 usec per message,   0.0063 usec per 8-byte item

 *** (NO TITLE) ***



 ===========================
 A T T A C H E D   F I L E S
 ===========================
  



 ===============================
 M O D E L   P A R A M E T E R S
 ===============================
  
 DENSITY FUNCTIONAL POTENTIAL (scf)
    LDA:                               PW92                                    == Not Default ==
    Gradient Corrections:              PBEc PBEx                               == Not Default ==

 SPIN  (restricted / unrestr.)
    Molecule:                          Restricted                               
    Fragments:                         Restricted                               

 OTHER ASPECTS
    Relativistic Corrections:          scalar (ZORA,MAPA)                      == Not Default ==

    Nuclear Charge Density Model:      Point Charge Nuclei                      
    Core Treatment:                    Frozen Orbital(s)                        

    Hyperfine or Zeeman Interaction:   ---                                      


 Fragment File(s)
 ----------------
 C:
         file : t21.C
         jobid: ADF 2019.303  RunTime: Apr01-2020 20:47:56  Nodes: 1  Procs: 1
         title: Carbon (DZP)
 H:
         file : t21.H
         jobid: ADF 2019.303  RunTime: Apr01-2020 20:47:55  Nodes: 1  Procs: 1
         title: Hydrogen (DZP)



                                   *********************************************
                                   *  R U N   T Y P E : GEOMETRY OPTIMIZATION  *
                                   *********************************************
  



 ===============
 G E O M E T R Y  ***  Planar Molecule  ***
 ===============
  

 ATOMS
 =====                            X Y Z                    CHARGE
                                (Angstrom)             Nucl     +Core       At.Mass
                       --------------------------    ----------------       -------
    1  C              -1.2131   -0.6884    0.0000      6.00      6.00       12.0000
    2  C              -1.2028    0.7064    0.0000      6.00      6.00       12.0000
    3  C              -0.0103   -1.3948    0.0000      6.00      6.00       12.0000
    4  C               0.0104    1.3948    0.0000      6.00      6.00       12.0000
    5  C               1.2028   -0.7063    0.0000      6.00      6.00       12.0000
    6  C               1.2131    0.6884    0.0000      6.00      6.00       12.0000
    7  H              -2.1577   -1.2244    0.0000      1.00      1.00        1.0078
    8  H              -2.1393    1.2564    0.0000      1.00      1.00        1.0078
    9  H              -0.0184   -2.4809    0.0000      1.00      1.00        1.0078
   10  H               0.0184    2.4808    0.0000      1.00      1.00        1.0078
   11  H               2.1394   -1.2563    0.0000      1.00      1.00        1.0078
   12  H               2.1577    1.2245    0.0000      1.00      1.00        1.0078


 FRAGMENTS
 =========                                     Atoms in this Fragment     Cart. coord.s (Angstrom)
                                               -------------------------------------------------------
    1  C                                                 1  C           -1.2131   -0.6884    0.0000
    2  C                                                 2  C           -1.2028    0.7064    0.0000
    3  C                                                 3  C           -0.0103   -1.3948    0.0000
    4  C                                                 4  C            0.0104    1.3948    0.0000
    5  C                                                 5  C            1.2028   -0.7063    0.0000
    6  C                                                 6  C            1.2131    0.6884    0.0000
    7  H                                                 7  H           -2.1577   -1.2244    0.0000
    8  H                                                 8  H           -2.1393    1.2564    0.0000
    9  H                                                 9  H           -0.0184   -2.4809    0.0000
   10  H                                                10  H            0.0184    2.4808    0.0000
   11  H                                                11  H            2.1394   -1.2563    0.0000
   12  H                                                12  H            2.1577    1.2245    0.0000


 Interatomic Distance Matrix (Angstrom)
 --------------------------------------

   1)     0.000
   2)     1.395   0.000
   3)     1.395   2.416   0.000
   4)     2.416   1.395   2.790   0.000
   5)     2.416   2.790   1.395   2.416   0.000
   6)     2.790   2.416   2.416   1.395   1.395   0.000
   7)     1.086   2.154   2.154   3.400   3.400   3.876   0.000
   8)     2.154   1.086   3.400   2.154   3.876   3.400   2.481   0.000
   9)     2.154   3.400   1.086   3.876   2.154   3.400   2.481   4.297   0.000
  10)     3.400   2.154   3.876   1.086   3.400   2.154   4.297   2.481   4.962   0.000
  11)     3.400   3.876   2.154   3.400   1.086   2.154   4.297   4.962   2.481   4.297
          0.000
  12)     3.876   3.400   3.400   2.154   2.154   1.086   4.962   4.297   4.297   2.481
          2.481   0.000

 Min. Distance =    1.0860
 Max. Distance =    4.9619



 =====================================
 S Y M M E T R Y ,   E L E C T R O N S
 =====================================
  
 Symmetry: NOSYM

 Irreducible Representations, including subspecies
 -------------------------------------------------
 A


 Configuration of Valence Electrons
 ==================================
 ( determined in the SCF procedure )

 Total:   42

 Net Charge: 0 (Nuclei minus Electrons)

 Aufbau principle for MO occupations will be applied through SCF cycle no.     150
 Thereafter, the program will assign electrons to MOs that are spatially
 similar to the occupied MOs in a "reference" cycle ("KeepOrbitals").
 The reference cycle is always the PREVIOUS cycle: it will evolve with
 the SCF procedure.
1
 ***************************************************************************************************



                                      ****************************************
                                      *  B U I L D : (Fragments, Functions)  *
                                      ****************************************
  

 Total nr. of (C)SFOs (summation over all irreps) :   120

 Specify PRINT SFO in the input file to get a full list

 Nr. of SFOs for ir.rep.           A :   120



 ================================
 (Slater-type)  F U N C T I O N S  ***  (Basis and Fit)  ***
 ================================
  

 Atom Type    1  (C)
 ==============

 Valence Basis Sets:   7
 -----------------------
   1 S    7.680000
   1 S    5.000000
   2 S    1.980000
   2 S    1.240000
   2 P    2.200000
   2 P    0.960000
   3 D    2.200000

 Atom Type    2  (H)
 ==============

 Valence Basis Sets:   3
 -----------------------
   1 S    0.760000
   1 S    1.280000
   2 P    1.250000


 BAS: List of all Elementary Cartesian Basis Functions
 =====================================================

 The numbering in the list below (to the right of the function characteristics) is referred
 to in print-outs of MO eigenvectors and Mulliken populations in the BAS representation
 (as contrasted to the SFO representation).

 Notes:
 1. The functions are characterized by a polynomial prefactor (powers of x,y,z and r) and
    an exponential decay factor alpha.
 2. Since the basis sets are specific for an atom TYPE, the individual functions occur on
    all atoms of that type.
 3. The word 'Core' in the left margin signals that it is a Core Function (CF) : not a
    degree of freedom in the valence set, but only used to ensure orthogonalization of
    the other valence basis functions on the frozen Core Orbitals.


 (power of) X  Y  Z  R     Alpha  on Atom
            ==========     =====     ==========

 C                                    1    2    3    4    5    6
                                  ---------------------------------------------------------------------------
            0  0  0  0     7.680      1   17   33   49   65   81
            0  0  0  0     5.000      2   18   34   50   66   82
            0  0  0  1     1.980      3   19   35   51   67   83
            0  0  0  1     1.240      4   20   36   52   68   84
            1  0  0  0     2.200      5   21   37   53   69   85
            0  1  0  0     2.200      6   22   38   54   70   86
            0  0  1  0     2.200      7   23   39   55   71   87
            1  0  0  0     0.960      8   24   40   56   72   88
            0  1  0  0     0.960      9   25   41   57   73   89
            0  0  1  0     0.960     10   26   42   58   74   90
            2  0  0  0     2.200     11   27   43   59   75   91
            1  1  0  0     2.200     12   28   44   60   76   92
            1  0  1  0     2.200     13   29   45   61   77   93
            0  2  0  0     2.200     14   30   46   62   78   94
            0  1  1  0     2.200     15   31   47   63   79   95
            0  0  2  0     2.200     16   32   48   64   80   96

 H                                    7    8    9   10   11   12
                                  ---------------------------------------------------------------------------
            0  0  0  0     0.760     97  102  107  112  117  122
            0  0  0  0     1.280     98  103  108  113  118  123
            1  0  0  0     1.250     99  104  109  114  119  124
            0  1  0  0     1.250    100  105  110  115  120  125
            0  0  1  0     1.250    101  106  111  116  121  126

 Total number of charge fitting functions (nprimf)       804
 Total number of Cartesian basis functions (naos)        126
 Total number of Cartesian core functions  (ncos)          0



 Coordinates (Cartesian)
 =======================

     Atom                    bohr                                 angstrom                 Geometric Variables
                   X           Y           Z              X           Y           Z       (0:frozen, *:LT par.)
 --------------------------------------------------------------------------------------------------------------
     1 C      -2.292427   -1.300887    0.000017      -1.213100   -0.688400    0.000009      1       2       3
     2 C      -2.272963    1.334903    0.000037      -1.202800    0.706400    0.000019      4       5       6
     3 C      -0.019464   -2.635790   -0.000004      -0.010300   -1.394800   -0.000002      7       8       9
     4 C       0.019653    2.635790    0.000035       0.010400    1.394800    0.000019     10      11      12
     5 C       2.272963   -1.334714   -0.000005       1.202800   -0.706300   -0.000003     13      14      15
     6 C       2.292427    1.300887    0.000014       1.213100    0.688400    0.000007     16      17      18
     7 H      -4.077462   -2.313781    0.000019      -2.157700   -1.224400    0.000010     19      20      21
     8 H      -4.042691    2.374252    0.000053      -2.139300    1.256400    0.000028     22      23      24
     9 H      -0.034771   -4.688222   -0.000019      -0.018400   -2.480900   -0.000010     25      26      27
    10 H       0.034771    4.688033    0.000050       0.018400    2.480800    0.000027     28      29      30
    11 H       4.042880   -2.374063   -0.000022       2.139400   -1.256300   -0.000011     31      32      33
    12 H       4.077462    2.313970    0.000013       2.157700    1.224500    0.000007     34      35      36
 --------------------------------------------------------------------------------------------------------------
1
 ***************************************************************************************************



                                              ***********************
                                              *  T E C H N I C A L  *
                                              ***********************
  



 =============================================================
 P A R A L L E L I Z A T I O N  and  V E C T O R I Z A T I O N
 =============================================================
  
 Nr of parallel processes:                                4
 Maximum vector length in NumInt loops:                 128



 ===============================
 G E O M E T R Y   U P D A T E S
 ===============================
  
 Optimization coordinates:                       Delocalized
 Optimization code branch:                       NEW
 Hessian update method:                          BFGS (Broyden-Fletcher-Goldfarb-Shanno)

 Iterative Geometry Improvements:
    Max. nr. of iterations:                         72
    Convergence criteria:
         Change in energy (hartree):                 0.0010000000
         Gradients (au/Angstrom):                    0.0010000000
         Cart/bondlength changes (Angstrom):         0.0100000000
    Max. step to take:
         Trust Radius:                               0.2000000000

 GDIIS (Geometry Direct Inversion in Iteration Space):
    First geometry cycle:                            0
    Max. number expansion vectors:                   5



 =====================
 S C F   U P D A T E S
 =====================
  
 Max. nr. of cycles:                               300
 Convergence criterion:                              0.0000010000
   secondary criterion:                              0.0010000000

 Mix parameter (when DIIS does not apply):           0.2000000000
 Mixed ADIIS+SDIIS will be used                  
    Max number of expansion vectors:                10
    Pure ADIIS when Max([F,P]) is above              0.1000000000
    Pure SDIIS when Max([F,P]) is below              0.0010000000



 =================
 P R E C I S I O N  ***  (General: NumInt, NeglectFunctionTails, ...)  ***
 =================
  

 NumInt:           Target precision:                 4.0000000000
 -------           Initial precision:                4.0000000000
                   Min. precision (optimization):    4.0000000000

 Neglect Functions:          Basis functions:        0.1000000000E-05
 ------------------          Fit functions:          0.1000000000E-05



 ===========================
 L I N E A R   S C A L I N G
 ===========================
  

 Cut-off radii density fit:                        0.1000000000E-07
 Overlap cut-off criterion AO matrix elements:     0.1000000000E-05
 Cut-offs for Coulomb potential and fitted density:0.1000000000E-07
 Cut-off criterion for Coulomb multipole terms:    0.1000000000E-07
 Progressive Convergence parameter:                 0.000000000    
1
 ***************************************************************************************************



                                            ***************************
                                            *  C O M P U T A T I O N  *
                                            ***************************
  

 Number of elements of the density matrix on this node (used, total):      2162      8001



 ===========================================
 Numerical Integration : Fuzzy Cells (Becke)
 ===========================================
  
 Becke grid quality: NORMAL         
  
 Lebedev angular grid order:             min:  11 max:  23
 Nr. of radial points:                   min:  46 max:  52

 Total nr. of points:      75654
 Nr. of blocks:              592
 Block length:               128
 Nr. of dummy points:        122


 Test of Precision of the Numerical Integration Grid
 ===================================================

 Integral of the Total Core Density:                   0.00000000000000



 ========================
 Density Fitting (zlmFit)
 ========================
  
 ZlmFit Fit Quality: NORMAL         
  
 Max L-expansion:                        min:   5 max:   6
 Nr. of radial interpolation points:     min:  36 max:  48



 =====
 S C F  ***  ScaSCF  ***
 =====
  
 Initial density matrix is calculated as sum of fragments

 CYCLE    1
 SCF Error: norm([F,P])=      6.042438665968, max([F,P])=      0.865647702958
 orbitals (Q,E):
 ---------------
 A :12...31          ( 2.00    -0.6701)  ( 2.00    -0.6375)  ( 2.00    -0.5969)  ( 2.00    -0.5800)
                     ( 2.00    -0.5799)  ( 2.00    -0.5111)  ( 2.00    -0.5111)  ( 2.00    -0.5073)
                     ( 2.00    -0.4120)  ( 2.00    -0.4120)  ( 0.00    -0.2223)  ( 0.00    -0.2223)
                     ( 0.00    -0.0811)  ( 0.00    -0.0727)  ( 0.00    -0.0251)  ( 0.00    -0.0251)
                     ( 0.00     0.0003)  ( 0.00     0.0004)  ( 0.00     0.0460)  ( 0.00     0.0824)

 CYCLE    2
   MIX coefficients:  0.8000  0.2000
 SCF Error: norm([F,P])=      0.937968942214, max([F,P])=      0.140379882940
 orbitals (Q,E):
 ---------------
 A :12...22          ( 2.00    -0.6053)  ( 2.00    -0.5525)  ( 2.00    -0.5405)  ( 2.00    -0.5119)
                     ( 2.00    -0.5119)  ( 2.00    -0.4427)  ( 2.00    -0.4426)  ( 2.00    -0.4408)
                     ( 2.00    -0.3453)  ( 2.00    -0.3453)  ( 0.00    -0.1562)

 CYCLE    3
  SDIIS (wt  0.000): -1.2555  2.2555
 A-DIIS (wt  1.000):  0.0000  1.0000
  DIIS coefficients:  0.0000  1.0000
 SCF Error: norm([F,P])=      0.542532227174, max([F,P])=      0.082008087861
 orbitals (Q,E):
 ---------------
 A :12...22          ( 2.00    -0.4096)  ( 2.00    -0.3644)  ( 2.00    -0.3064)  ( 2.00    -0.3063)
                     ( 2.00    -0.3049)  ( 2.00    -0.2573)  ( 2.00    -0.2309)  ( 2.00    -0.2308)
                     ( 2.00    -0.1600)  ( 2.00    -0.1599)  ( 0.00     0.0285)

 CYCLE    4
  SDIIS (wt  0.000):  0.3351  0.1455  0.5194
 A-DIIS (wt  1.000):  0.0000  0.6310  0.3690
  DIIS coefficients:  0.0000  0.6310  0.3690
 SCF Error: norm([F,P])=      0.756983426894, max([F,P])=      0.093902985435
 orbitals (Q,E):
 ---------------
 A :12...22          ( 2.00    -0.4791)  ( 2.00    -0.4130)  ( 2.00    -0.4050)  ( 2.00    -0.3818)
                     ( 2.00    -0.3818)  ( 2.00    -0.3382)  ( 2.00    -0.3064)  ( 2.00    -0.3064)
                     ( 2.00    -0.2391)  ( 2.00    -0.2390)  ( 0.00    -0.0469)

 CYCLE    5
  SDIIS (wt  0.903): -0.0284  0.2283  0.0734  0.7268
 A-DIIS (wt  0.097):  0.0000  0.0000  0.0000  1.0000
  DIIS coefficients: -0.0257  0.2062  0.0663  0.7532
 SCF Error: norm([F,P])=      0.074582553005, max([F,P])=      0.010567994793
 orbitals (Q,E):
 ---------------
 A :12...22          ( 2.00    -0.4904)  ( 2.00    -0.4274)  ( 2.00    -0.4190)  ( 2.00    -0.3929)
                     ( 2.00    -0.3929)  ( 2.00    -0.3456)  ( 2.00    -0.3197)  ( 2.00    -0.3196)
                     ( 2.00    -0.2477)  ( 2.00    -0.2477)  ( 0.00    -0.0567)

 CYCLE    6
  SDIIS (wt  1.000): -0.0087  0.0376  0.0062  0.1904  0.7746
  DIIS coefficients: -0.0087  0.0376  0.0062  0.1904  0.7746
 SCF Error: norm([F,P])=      0.010280730296, max([F,P])=      0.000969181058
[...]
     ----                                                       ------     -----    ------     -----

     298.15   Entropy (cal/mole-K):                             38.979    20.726     4.798    64.503
              Internal Energy (Kcal/mole):                       0.889     0.889    62.301    64.078
              Constant Volume Heat Capacity (cal/mole-K):        2.981     2.981    11.928    17.890

              Summary of energy terms
                                                   hartree              eV         kcal/mol           kJ/mol
                                      --------------------     -----------       ----------      -----------
              Bond Energy:              -2.756736798730619        -75.0146         -1729.88         -7237.81
              Internal Energy:           0.102115078254311          2.7787            64.08           268.10
              pV/n = RT:                 0.000944186013486          0.0257             0.59             2.48
              Enthalpy H:               -2.653677534462822        -72.2102         -1665.21         -6967.23
              -T*S:                     -0.030647563887057         -0.8340           -19.23           -80.47
              Gibbs free energy:        -2.684325098349879        -73.0442         -1684.44         -7047.69
 

 ***************************************************************************************************
 


====================================================================
*** DONE CALCULATING ANALYTICAL SECOND DERIVATIVES OF THE ENERGY ***
====================================================================

 
 
 ========================
 No memory problems found
 ========================
 
 Maximum number of active allocate calls:        1314
 
 *******************************************************************************

                             A D F   E X I T
 NORMAL TERMINATION



 =================
 Timing Statistics
 =================
  
 Total Used :                     CPU=      151.53      System=        4.58     Elapsed=      163.03

 Calls  Section                     ( Mean, Percentage )
 ---------------------------------------------------------------------------------------------------
     3  ><      ................      0.00    0.00             0.00    0.00             0.01    0.01
     1  INIT    ................      0.56    0.37             0.02    0.34             0.62    0.38
     1  GEOMET  ................      0.08    0.05             0.05    1.02             0.13    0.08
     1  FRAGM   ................      0.02    0.01             0.03    0.68             0.06    0.04
     1  INPUTA  ................      0.00    0.00             0.00    0.00             0.00    0.00
     1  ATDEN   ................      0.00    0.00             0.02    0.34             0.01    0.00
     4  MAINSY  ................      0.05    0.14             0.04    3.75             0.21    0.51
     4  SYMFIT  ................      0.00    0.01             0.00    0.00             0.02    0.04
     4  CORORT  ................      0.00    0.00             0.00    0.00             0.01    0.02
     4  SYMORB  ................      0.01    0.02             0.00    0.00             0.01    0.03
     4  CLSMAT  ................      0.01    0.03             0.00    0.00             0.02    0.05
     4  ORTHON  ................      0.01    0.02             0.01    0.68             0.02    0.04
     4  GENPT   ................      0.08    0.21             0.04    3.07             0.12    0.31
     4  PTBAS   ................      0.25    0.65             0.01    1.02             0.27    0.66
    32  FOCKY   ................      0.47    9.92             0.01    6.48             0.52   10.22
    32  FOCKTR  ................      0.00    0.07             0.00    0.34             0.01    0.13
    32  SDIIS   ................      0.00    0.08             0.00    2.39             0.01    0.29
     4  TOTEN   ................      2.16    5.71             0.05    4.78             2.32    5.68
     4  POPAN   ................      0.01    0.03             0.00    0.34             0.02    0.04
     4  DEBYE   ................      0.01    0.02             0.00    0.34             0.02    0.04
     4  INPUTE  ................      0.00    0.00             0.00    0.00             0.00    0.00
     4  SYMORE  ................      0.00    0.01             0.00    0.00             0.00    0.00
     7  ELNRGY  ................      0.36    1.66             0.01    2.05             0.37    1.61
     3  ENGRAD  ................      0.00    0.00             0.00    0.00             0.00    0.00
     1  COREPS  ................      0.33    0.22             0.03    0.68             0.38    0.23
     1  METS    ................      0.00    0.00             0.00    0.00             0.01    0.01
     1  CETS    ................      0.02    0.01             0.00    0.00             0.02    0.01
     1  POPUL   ................      0.00    0.00             0.00    0.00             0.02    0.01
     1  ENHESS  ................    122.34   80.74             3.27   71.33           129.60   79.49
     1  EXIT PROCEDURE .........      0.02    0.01             0.02    0.34             0.04    0.03


 Currently Open Files (EXIT00)
 ====================

 Unit    Access Format  Status   Type       Ident (file)
 -------------------------------------------------------
   3      SEQ    FORM   TRANSP  NORMAL      LOGFILE
                                          ( logfile )

 ***************************************************************************************************
 (LOGFILE)
 <Apr01-2020> <20:47:55>  DIRAC 2019.303  RunTime: Apr01-2020 20:47:55  Nodes: 1  Procs: 1
 <Apr01-2020> <20:47:55>  NORMAL TERMINATION
 <Apr01-2020> <20:47:55>  END
 <Apr01-2020> <20:47:55>  ADF 2019.303  RunTime: Apr01-2020 20:47:55  Nodes: 1  Procs: 1
 <Apr01-2020> <20:47:55>  Hydrogen (DZP)
 <Apr01-2020> <20:47:55>  RunType   : CREATE
 <Apr01-2020> <20:47:55>  Net Charge: 0 (Nuclei minus Electrons)
 <Apr01-2020> <20:47:55>  Symmetry  : ATOM
  Coordinates
    Atom         X           Y           Z   (Angstrom)
    1.H         0.000000    0.000000    0.000000
 <Apr01-2020> <20:47:55>  >>>> CORORT
 <Apr01-2020> <20:47:55>  >>>> CLSMAT
 <Apr01-2020> <20:47:55>  >>>> ORTHON
 <Apr01-2020> <20:47:55>  >>>> GENPT
 <Apr01-2020> <20:47:55>  Block Length=  64
 <Apr01-2020> <20:47:55>  >>>> PTBAS
 <Apr01-2020> <20:47:55>  >>>> CYCLE
 <Apr01-2020> <20:47:55>              |Error|         MaxErr       Wt(A-DIIS)
 <Apr01-2020> <20:47:55>      1      0.00000000      0.00000000
 <Apr01-2020> <20:47:55>      2      0.03300193      0.03300193
 <Apr01-2020> <20:47:55>      3      0.00595445      0.00595445    100.0
 <Apr01-2020> <20:47:55>      4      0.00102040      0.00102040      0.0
 <Apr01-2020> <20:47:55>      5      0.00000144      0.00000144      0.0
 <Apr01-2020> <20:47:55>      6      0.00000000      0.00000000      0.0
 <Apr01-2020> <20:47:55>  SCF converged
 <Apr01-2020> <20:47:56>      7      0.00000000      0.00000000      0.0
 <Apr01-2020> <20:47:56>  >>>> POPAN
 <Apr01-2020> <20:47:56>  >>>> DEBYE
 <Apr01-2020> <20:47:56>  NORMAL TERMINATION
 <Apr01-2020> <20:47:56>  END
 <Apr01-2020> <20:47:56>  DIRAC 2019.303  RunTime: Apr01-2020 20:47:56  Nodes: 1  Procs: 1
 <Apr01-2020> <20:47:56>  NORMAL TERMINATION
 <Apr01-2020> <20:47:56>  END
 <Apr01-2020> <20:47:56>  ADF 2019.303  RunTime: Apr01-2020 20:47:56  Nodes: 1  Procs: 1
 <Apr01-2020> <20:47:56>  Carbon (DZP)
 <Apr01-2020> <20:47:56>  RunType   : CREATE
 <Apr01-2020> <20:47:56>  Net Charge: 0 (Nuclei minus Electrons)
 <Apr01-2020> <20:47:56>  Symmetry  : ATOM
  Coordinates
    Atom         X           Y           Z   (Angstrom)
    1.C         0.000000    0.000000    0.000000
 <Apr01-2020> <20:47:56>  >>>> CORORT
 <Apr01-2020> <20:47:56>  >>>> CLSMAT
 <Apr01-2020> <20:47:56>  >>>> ORTHON
 <Apr01-2020> <20:47:56>  >>>> GENPT
 <Apr01-2020> <20:47:56>  Block Length=  72
 <Apr01-2020> <20:47:56>  >>>> PTBAS
 <Apr01-2020> <20:47:56>  >>>> CYCLE
 <Apr01-2020> <20:47:57>              |Error|         MaxErr       Wt(A-DIIS)
 <Apr01-2020> <20:47:57>      1      0.00000000      0.00000000
 <Apr01-2020> <20:47:57>      2      3.72700824      2.80694913
 <Apr01-2020> <20:47:57>      3      1.07163600      0.92652942    100.0
 <Apr01-2020> <20:47:57>      4      0.54511553      0.42827940    100.0
 <Apr01-2020> <20:47:57>      5      0.21090446      0.17335699    100.0
 <Apr01-2020> <20:47:57>      6      0.15631737      0.12516481    100.0
 <Apr01-2020> <20:47:57>      7      0.02737387      0.02220960     21.4
 <Apr01-2020> <20:47:57>      8      0.00436380      0.00352367      2.5
 <Apr01-2020> <20:47:57>      9      0.00008442      0.00006807      0.0
 <Apr01-2020> <20:47:57>     10      0.00000009      0.00000007      0.0
 <Apr01-2020> <20:47:57>     11      0.00000000      0.00000000      0.0
 <Apr01-2020> <20:47:57>  SCF converged
 <Apr01-2020> <20:47:57>     12      0.00000000      0.00000000      0.0
 <Apr01-2020> <20:47:57>  >>>> POPAN
 <Apr01-2020> <20:47:57>  >>>> DEBYE
 <Apr01-2020> <20:47:57>  NORMAL TERMINATION
 <Apr01-2020> <20:47:57>  END
 <Apr01-2020> <20:47:58>  ADF 2019.303  RunTime: Apr01-2020 20:47:58  Nodes: 1  Procs: 4
 <Apr01-2020> <20:47:58>  *** (NO TITLE) ***
 <Apr01-2020> <20:47:58>  RunType   : GEOMETRY OPTIMIZATION
 <Apr01-2020> <20:47:58>  Net Charge: 0 (Nuclei minus Electrons)
 <Apr01-2020> <20:47:58>  Symmetry  : NOSYM
 <Apr01-2020> <20:47:58>  >>>> FRAGM
  Coordinates in Geometry Cycle 1
    Atom         X           Y           Z   (Angstrom)
    1.C        -1.213100   -0.688400    0.000009
    2.C        -1.202800    0.706400    0.000019
    3.C        -0.010300   -1.394800   -0.000002
    4.C         0.010400    1.394800    0.000019
    5.C         1.202800   -0.706300   -0.000003
    6.C         1.213100    0.688400    0.000007
    7.H        -2.157700   -1.224400    0.000010
    8.H        -2.139300    1.256400    0.000028
    9.H        -0.018400   -2.480900   -0.000010
   10.H         0.018400    2.480800    0.000027
   11.H         2.139400   -1.256300   -0.000011
   12.H         2.157700    1.224500    0.000007
 <Apr01-2020> <20:47:59>  >>>> CORORT
 <Apr01-2020> <20:47:59>  >>>> CLSMAT
 <Apr01-2020> <20:47:59>  >>>> ORTHON
 <Apr01-2020> <20:47:59>  >>>> GENPT
 <Apr01-2020> <20:47:59>  Block Length= 128
 <Apr01-2020> <20:47:59>  >>>> PTBAS
 <Apr01-2020> <20:47:59>  >>>> CYCLE
 <Apr01-2020> <20:48:00>              |Error|         MaxErr       Wt(A-DIIS)
 <Apr01-2020> <20:48:00>      1      6.04243867      0.86564770
 <Apr01-2020> <20:48:00>      2      0.93796894      0.14037988    100.0
 <Apr01-2020> <20:48:01>      3      0.54253223      0.08200809    100.0
 <Apr01-2020> <20:48:02>      4      0.75698343      0.09390299    100.0
 <Apr01-2020> <20:48:02>      5      0.07458255      0.01056799      9.7
 <Apr01-2020> <20:48:03>      6      0.01028073      0.00096918      0.0
 <Apr01-2020> <20:48:04>      7      0.00089635      0.00014446      0.0
 <Apr01-2020> <20:48:05>      8      0.00026661      0.00005889      0.0
 <Apr01-2020> <20:48:05>      9      0.00012735      0.00002429      0.0
 <Apr01-2020> <20:48:06>     10      0.00004780      0.00001019      0.0
 <Apr01-2020> <20:48:07>     11      0.00000056      0.00000008      0.0
 <Apr01-2020> <20:48:07>  SCF converged
 <Apr01-2020> <20:48:07>     12      0.00000031      0.00000004      0.0
 <Apr01-2020> <20:48:07>  >>>> TOTEN
 <Apr01-2020> <20:48:10>  >>>> POPAN
 <Apr01-2020> <20:48:10>  >>>> DEBYE
 <Apr01-2020> <20:48:10>  >>>> ENGRAD
 <Apr01-2020> <20:48:11>  current energy                               -2.75663281 Hartree
 <Apr01-2020> <20:48:11>  energy change                      -2.75663281     0.00100000    F
 <Apr01-2020> <20:48:11>  constrained gradient max            0.00669292     0.00100000    F
 <Apr01-2020> <20:48:11>  constrained gradient rms            0.00290196     0.00066667    F
 <Apr01-2020> <20:48:11>  gradient max                        0.00669292
 <Apr01-2020> <20:48:11>  gradient rms                        0.00290196
 <Apr01-2020> <20:48:11>  cart. step max                      0.00658520     0.01000000    T
 <Apr01-2020> <20:48:11>  cart. step rms                      0.00289067     0.00666667    T
  Coordinates in Geometry Cycle 2
    Atom         X           Y           Z   (Angstrom)
    1.C        -1.215206   -0.689519    0.000009
    2.C        -1.204818    0.707497    0.000019
    3.C        -0.010329   -1.396688   -0.000002
    4.C         0.010384    1.396717    0.000019
    5.C         1.204868   -0.707469   -0.000003
    6.C         1.215253    0.689549    0.000007
    7.H        -2.163480   -1.228101    0.000010
    8.H        -2.144956    1.260093    0.000028
    9.H        -0.018451   -2.487366   -0.000010
   10.H         0.018410    2.487385    0.000027
   11.H         2.145016   -1.260078   -0.000012
   12.H         2.163509    1.228179    0.000007
 <Apr01-2020> <20:48:11>  >>>> CORORT
 <Apr01-2020> <20:48:11>  >>>> CLSMAT
 <Apr01-2020> <20:48:11>  >>>> ORTHON
 <Apr01-2020> <20:48:11>  >>>> GENPT
 <Apr01-2020> <20:48:11>  Block Length= 128
 <Apr01-2020> <20:48:11>  >>>> PTBAS
 <Apr01-2020> <20:48:11>  >>>> CYCLE
 <Apr01-2020> <20:48:12>              |Error|         MaxErr       Wt(A-DIIS)
 <Apr01-2020> <20:48:12>      1      0.02034116      0.00428269
 <Apr01-2020> <20:48:12>      2      0.00246826      0.00035899    100.0
 <Apr01-2020> <20:48:13>      3      0.00323199      0.00048221    100.0
 <Apr01-2020> <20:48:13>      4      0.00036984      0.00004641      0.0
 <Apr01-2020> <20:48:14>      5      0.00019890      0.00003376      0.0
 <Apr01-2020> <20:48:14>      6      0.00010600      0.00001684      0.0
 <Apr01-2020> <20:48:14>      7      0.00002309      0.00000411      0.0
 <Apr01-2020> <20:48:15>      8      0.00000424      0.00000089      0.0
 <Apr01-2020> <20:48:15>  SCF converged
 <Apr01-2020> <20:48:15>      9      0.00000014      0.00000002      0.0
 <Apr01-2020> <20:48:15>  >>>> TOTEN
 <Apr01-2020> <20:48:17>  >>>> POPAN
 <Apr01-2020> <20:48:17>  >>>> DEBYE
 <Apr01-2020> <20:48:17>  >>>> ENGRAD
 <Apr01-2020> <20:48:18>  current energy                               -2.75673456 Hartree
 <Apr01-2020> <20:48:18>  energy change                      -0.00010175     0.00100000    T
 <Apr01-2020> <20:48:18>  constrained gradient max            0.00140377     0.00100000    F
 <Apr01-2020> <20:48:18>  constrained gradient rms            0.00061817     0.00066667    T
 <Apr01-2020> <20:48:18>  gradient max                        0.00140377
 <Apr01-2020> <20:48:18>  gradient rms                        0.00061817
 <Apr01-2020> <20:48:18>  cart. step max                      0.00043270     0.01000000    T
 <Apr01-2020> <20:48:18>  cart. step rms                      0.00019252     0.00666667    T
  Coordinates in Geometry Cycle 3
    Atom         X           Y           Z   (Angstrom)
    1.C        -1.214974   -0.689353    0.000009
    2.C        -1.204569    0.707326    0.000019
    3.C        -0.010330   -1.396255   -0.000002
    4.C         0.010371    1.396286    0.000019
    5.C         1.204617   -0.707301   -0.000003
    6.C         1.215014    0.689388    0.000007
    7.H        -2.163696   -1.228411    0.000010
    8.H        -2.145154    1.260393    0.000028
    9.H        -0.018429   -2.487578   -0.000010
   10.H         0.018423    2.487609    0.000027
   11.H         2.145202   -1.260369   -0.000012
   12.H         2.163725    1.228466    0.000007
 <Apr01-2020> <20:48:18>  >>>> CORORT
 <Apr01-2020> <20:48:18>  >>>> CLSMAT
 <Apr01-2020> <20:48:18>  >>>> ORTHON
 <Apr01-2020> <20:48:19>  >>>> GENPT
 <Apr01-2020> <20:48:19>  Block Length= 128
 <Apr01-2020> <20:48:19>  >>>> PTBAS
 <Apr01-2020> <20:48:19>  >>>> CYCLE
 <Apr01-2020> <20:48:19>              |Error|         MaxErr       Wt(A-DIIS)
 <Apr01-2020> <20:48:19>      1      0.00416437      0.00112393
 <Apr01-2020> <20:48:20>      2      0.00052485      0.00007039    100.0
 <Apr01-2020> <20:48:20>      3      0.00043917      0.00007883    100.0
 <Apr01-2020> <20:48:21>      4      0.00020267      0.00003612      0.0
 <Apr01-2020> <20:48:21>      5      0.00001985      0.00000379      0.0
 <Apr01-2020> <20:48:22>      6      0.00001060      0.00000168      0.0
 <Apr01-2020> <20:48:22>      7      0.00000338      0.00000060      0.0
 <Apr01-2020> <20:48:22>  SCF converged
 <Apr01-2020> <20:48:23>      8      0.00000038      0.00000007      0.0
 <Apr01-2020> <20:48:23>  >>>> TOTEN
 <Apr01-2020> <20:48:25>  >>>> POPAN
 <Apr01-2020> <20:48:25>  >>>> DEBYE
 <Apr01-2020> <20:48:25>  >>>> ENGRAD
 <Apr01-2020> <20:48:26>  current energy                               -2.75673680 Hartree
 <Apr01-2020> <20:48:26>  energy change                      -0.00000224     0.00100000    T
 <Apr01-2020> <20:48:26>  constrained gradient max            0.00003559     0.00100000    T
 <Apr01-2020> <20:48:26>  constrained gradient rms            0.00001391     0.00066667    T
 <Apr01-2020> <20:48:26>  gradient max                        0.00003559
 <Apr01-2020> <20:48:26>  gradient rms                        0.00001391
 <Apr01-2020> <20:48:26>  cart. step max                      0.00006437     0.01000000    T
 <Apr01-2020> <20:48:26>  cart. step rms                      0.00002180     0.00666667    T
 <Apr01-2020> <20:48:26>  GEOMETRY CONVERGED
 <Apr01-2020> <20:48:26>  Calculating Energy Terms for Final Geometry
  Coordinates in Geometry Cycle 3
    Atom         X           Y           Z   (Angstrom)
    1.C        -1.214974   -0.689353    0.000009
    2.C        -1.204569    0.707326    0.000019
    3.C        -0.010330   -1.396255   -0.000002
    4.C         0.010371    1.396286    0.000019
    5.C         1.204617   -0.707301   -0.000003
    6.C         1.215014    0.689388    0.000007
    7.H        -2.163696   -1.228411    0.000010
    8.H        -2.145154    1.260393    0.000028
    9.H        -0.018429   -2.487578   -0.000010
   10.H         0.018423    2.487609    0.000027
   11.H         2.145202   -1.260369   -0.000012
   12.H         2.163725    1.228466    0.000007
 <Apr01-2020> <20:48:26>  >>>> CORORT
 <Apr01-2020> <20:48:26>  >>>> CLSMAT
 <Apr01-2020> <20:48:26>  >>>> ORTHON
 <Apr01-2020> <20:48:26>  >>>> GENPT
 <Apr01-2020> <20:48:26>  Block Length= 128
 <Apr01-2020> <20:48:26>  >>>> PTBAS
 <Apr01-2020> <20:48:26>  >>>> CYCLE
 <Apr01-2020> <20:48:27>              |Error|         MaxErr       Wt(A-DIIS)
 <Apr01-2020> <20:48:27>      1      0.00000002      0.00000001
 <Apr01-2020> <20:48:27>      2      0.00000002      0.00000000    100.0
 <Apr01-2020> <20:48:27>  SCF converged
 <Apr01-2020> <20:48:28>      3      0.00000003      0.00000001    100.0
 <Apr01-2020> <20:48:28>  >>>> TOTEN
 <Apr01-2020> <20:48:31>  >>>> POPAN
 <Apr01-2020> <20:48:31>  >>>> DEBYE
 <Apr01-2020> <20:48:31>  >>>> AMETS
 <Apr01-2020> <20:48:31>  >>>> POPUL
 <Apr01-2020> <20:48:31>   Bond Energy          -2.75673680 a.u.
 <Apr01-2020> <20:48:31>   Bond Energy         -75.01462506 eV
 <Apr01-2020> <20:48:31>   Bond Energy       -1729.88       kcal/mol
 <Apr01-2020> <20:48:31>  >>>> ENHESS
 <Apr01-2020> <20:48:31>  === NUCLEUS:     1
 <Apr01-2020> <20:48:45>  === NUCLEUS:     2
 <Apr01-2020> <20:48:56>  === NUCLEUS:     3
 <Apr01-2020> <20:49:09>  === NUCLEUS:     4
 <Apr01-2020> <20:49:19>  === NUCLEUS:     5
 <Apr01-2020> <20:49:29>  === NUCLEUS:     6
 <Apr01-2020> <20:49:39>  === NUCLEUS:     7
 <Apr01-2020> <20:49:49>  === NUCLEUS:     8
 <Apr01-2020> <20:49:59>  === NUCLEUS:     9
 <Apr01-2020> <20:50:10>  === NUCLEUS:    10
 <Apr01-2020> <20:50:19>  === NUCLEUS:    11
 <Apr01-2020> <20:50:29>  === NUCLEUS:    12
 <Apr01-2020> <20:50:39>  >>>> CALC_HESS_PMAT
 <Apr01-2020> <20:50:40>  >>>> CALC_HESS_WMAT
 <Apr01-2020> <20:50:40>  NORMAL TERMINATION
 <Apr01-2020> <20:50:41>  END
