
 *******************************************************************************
 *                                                                             *
 *  --------------------------------                                           *
 *   Amsterdam Modeling Suite (AMS)              2019.303                      *
 *  --------------------------------                                           *
 *                                               r81909 2020-02-21             *
 *                                                                             *
 *                                                                             *
 *                            =====================                            *
 *                            |                   |                            *
 *                            |     D I R A C     |                            *
 *                            |                   |                            *
 *                            =====================                            *
 *                                                                             *
 *                                                                             *
 *   Online information and documentation:  https://www.scm.com/support/       *
 *   E-mail:  support@scm.com   info@scm.com                                   *
 *                                                                             *
 *   Scientific publications using AMS results must be properly referenced     *
 *   See the User Manuals (or the web site) for recommended citations          *
 *   The terms and conditions of the End User License Agreement apply to       *
 *   the use of AMS, https://www.scm.com/license-terms/                        *
 *                                                                             *
 *********************  x86_64_windows_intel / intelmpi  ***********************
 
 Licensed to: Student project account / Theoretische chemie, Vrije Universiteit / Amsterdam / NETHERLANDS
 SCM User ID: u20153
  
 DIRAC 2019.303  RunTime: Apr01-2020 21:41:20  Nodes: 1  Procs: 1

 Temporary files are created in D:\SCMTMP\/kid_0.1564458858
1
 HYDROGEN ATOM RELATIVISTIC, Point Nuc, A and c from libtc   
 N J RN H ZN XION ANUC CLIGHT
 5000    1100.00000000197.36710137  1.00000000  0.00000000    1.007825  0.1370360E+03
  PH   PHI     EPS        DEL        DELRVR
  0.30  0.30     2500.00  0.00001000  0.00001000
 IDIRC  NC1  NDEBU NPRIN  IPUN IRCOR IWCOR
   1   300     0     0     0     0     0
   XALPHA      XLATTER      RNUC
  0.70000000  0.00000000  0.00000000 Point Charge
   XN   XL   XJ      XE          XZ      XDELL
  1.0  0.0  0.5      -1.000       1.000     0.00000
 ICORP=  0  NPCL=  0  DEMP=0.00  PEPS=0.000000
 R(1)=  0.1000000E-08 D=  0.1005080E+01 RNUC=  0.0000000E+00
 converged at cycle   32  DENSITY AVERAGING    0.2400
  MAXIMUM ERROR IN R.V(R) IS   0.79874357E-05
 Q,EY,EV,EZ,ESUM,ETOT,RHO  0.100000E+01 -0.266614E+00 -0.619969E+00 -0.910779E+00 -0.203940E+00 -0.415998E+00  0.337036E-17


 DIRAC CALCULATION
1                    HYDROGEN ATOM RELATIVISTIC, Point Nuc, A and c from libtc


 EXCHANGE COEFFICIENT=  0.7000000           TAIL CORRECTION=  0.           NUCLEAR RADIUS=  0.000E+00
0                       ORBITAL    N    L    J     ELECTRONS     EIGENVALUE                DELTA OF EIGENV.

                          1S1/2  1.0  0.0  0.5     1.000       -0.2039397E+00                 0.2720093E-06


                                        NUCLEAR CHARGE=    1.000000
                            INTEGRAL OF CHARGE DENSITY=    1.000000
                           SUM OF THE ORBITAL ENERGIES=     -0.2039
                                          TOTAL ENERGY=     -0.4160
                                        KINETIC ENERGY=      0.4160
                             NUCLEAR ATTRACTION ENERGY=     -0.9108
                             ELECTRON REPULSION ENERGY=      0.2787
                                       EXCHANGE ENERGY=     -0.2000

 *******************************************************************************

                             D I R A C   E X I T
 NORMAL TERMINATION



 =================
 Timing Statistics
 =================
  
 Total Used :                     CPU=        0.09      System=        0.00     Elapsed=        0.11

 Calls  Section                     ( Mean, Percentage )
 ---------------------------------------------------------------------------------------------------
     2  ><      ................      0.00    0.00             0.00    0.00             0.00    0.00
     1  EXIT PROCEDURE .........      0.09  100.00             0.00    0.00             0.11  100.00


 Currently Open Files (EXIT00)
 ====================

 Unit    Access Format  Status   Type       Ident (file)
 -------------------------------------------------------
   3      SEQ    FORM   TRANSP  NORMAL      LOGFILE
                                          ( logfile )
 
Create H   file=DZP-H
XC
  GGA PBE
End
relativistic ZORA
Corepotentials t12.rel
End

 *******************************************************************************
 *                                                                             *
 *  --------------------------------                                           *
 *   Amsterdam Modeling Suite (AMS)              2019.303                      *
 *  --------------------------------                                           *
 *                                               r81909 2020-02-21             *
 *                                                                             *
 *                                                                             *
 *                              =================                              *
 *                              |               |                              *
 *                              |     A D F     |                              *
 *                              |               |                              *
 *                              =================                              *
 *                                                                             *
 *                                                                             *
 *   Online information and documentation:  https://www.scm.com/support/       *
 *   E-mail:  support@scm.com   info@scm.com                                   *
 *                                                                             *
 *   Scientific publications using AMS results must be properly referenced     *
 *   See the User Manuals (or the web site) for recommended citations          *
 *   The terms and conditions of the End User License Agreement apply to       *
 *   the use of AMS, https://www.scm.com/license-terms/                        *
 *                                                                             *
 *********************  x86_64_windows_intel / intelmpi  ***********************
 
 Licensed to: Student project account / Theoretische chemie, Vrije Universiteit / Amsterdam / NETHERLANDS
 SCM User ID: u20153
  
 ADF 2019.303  RunTime: Apr01-2020 21:41:21  Nodes: 1  Procs: 1

 Temporary files are created in D:\SCMTMP\/kid_0.1933212906
 Hydrogen (DZP)



 ===========================
 A T T A C H E D   F I L E S
 ===========================
  
 CREATE - Data File:    DZP-H
                        Hydrogen (DZP)
 Core Potentials:
         file : t12.rel



 ===============================
 M O D E L   P A R A M E T E R S
 ===============================
  
 DENSITY FUNCTIONAL POTENTIAL (scf)
    LDA:                               PW92                                    == Not Default ==
    Gradient Corrections:              PBEc PBEx                               == Not Default ==

 SPIN  (restricted / unrestr.)
    Molecule:                          Restricted                               

 OTHER ASPECTS
    Relativistic Corrections:          scalar (ZORA,MAPA)                      == Not Default ==

    Nuclear Charge Density Model:      Point Charge Nuclei                      
    Core Treatment:                    Frozen Orbital(s)                        

    Hyperfine or Zeeman Interaction:   ---                                      



 =====================================
 S Y M M E T R Y ,   E L E C T R O N S
 =====================================
  
 Symmetry: ATOM

 Irreducible Representations, including subspecies
 -------------------------------------------------
 S
 P:x  P:y  P:z
 D:z2  D:x2-y2  D:xy  D:xz  D:yz
 F:z3  F:z  F:xyz  F:z2x  F:z2y  F:x  F:y


 Configuration of Valence Electrons
 ==================================

          Occupation Numbers
          -------------------------------------------------
 S        1
 P        0
 D        0
 F        0
          -------------------------------------------------

 Total:   1

 Net Charge: 0 (Nuclei minus Electrons)

 Preset values for MO occupations will be applied through SCF cycle no. 1000000
 Thereafter, the program will assign electrons to MOs that are spatially
 similar to the occupied MOs in a "reference" cycle ("KeepOrbitals").
 The reference cycle is always the PREVIOUS cycle: it will evolve with
 the SCF procedure.



 ================================
 (Slater-type)  F U N C T I O N S  ***  (Basis and Fit)  ***
 ================================
  

 Atom Type    1  (H)
 ==============

 Valence Basis Sets:   3
 -----------------------
   1 S    0.760000
   1 S    1.280000
   2 P    1.250000


 BAS: List of all Elementary Cartesian Basis Functions
 =====================================================

 The numbering in the list below (to the right of the function characteristics) is referred
 to in print-outs of MO eigenvectors and Mulliken populations in the BAS representation
 (as contrasted to the SFO representation).

 Notes:
 1. The functions are characterized by a polynomial prefactor (powers of x,y,z and r) and
    an exponential decay factor alpha.
 2. Since the basis sets are specific for an atom TYPE, the individual functions occur on
    all atoms of that type.
 3. The word 'Core' in the left margin signals that it is a Core Function (CF) : not a
    degree of freedom in the valence set, but only used to ensure orthogonalization of
    the other valence basis functions on the frozen Core Orbitals.


 (power of) X  Y  Z  R     Alpha  on Atom
            ==========     =====     ==========

 H                                    1
                                  ---------------------------------------------------------------------------
            0  0  0  0     0.760      1
            0  0  0  0     1.280      2
            1  0  0  0     1.250      3
            0  1  0  0     1.250      4
            0  0  1  0     1.250      5

 Total number of charge fitting functions (nprimf)        50
 Total number of Cartesian basis functions (naos)          5
 Total number of Cartesian core functions  (ncos)          0



 BAS: List of all Elementary Cartesian Basis Functions
 =====================================================

 The numbering in the list below (to the right of the function characteristics) is referred
 to in print-outs of MO eigenvectors and Mulliken populations in the BAS representation
 (as contrasted to the SFO representation).

 Notes:
 1. The functions are characterized by a polynomial prefactor (powers of x,y,z and r) and
    an exponential decay factor alpha.
 2. Since the basis sets are specific for an atom TYPE, the individual functions occur on
    all atoms of that type.
 3. The word 'Core' in the left margin signals that it is a Core Function (CF) : not a
    degree of freedom in the valence set, but only used to ensure orthogonalization of
    the other valence basis functions on the frozen Core Orbitals.


 (power of) X  Y  Z  R     Alpha  on Atom
            ==========     =====     ==========

 H                                    1
                                  ---------------------------------------------------------------------------
            0  0  0  0     0.760      1
            0  0  0  0     1.280      2
            1  0  0  0     1.250      3
            0  1  0  0     1.250      4
            0  0  1  0     1.250      5
1
 ***************************************************************************************************



                                              ***********************
                                              *  T E C H N I C A L  *
                                              ***********************
  



 =============================================================
 P A R A L L E L I Z A T I O N  and  V E C T O R I Z A T I O N
 =============================================================
  
 Nr of parallel processes:                                1
 Maximum vector length in NumInt loops:                 128



 =====================
 S C F   U P D A T E S
 =====================
  
 Max. nr. of cycles:                               300
 Convergence criterion:                              0.0000000100
   secondary criterion:                              0.0000000100

 Mix parameter (when DIIS does not apply):           0.2000000000
 Special mix parameter for the first cycle:          1.0000000000
 Mixed ADIIS+SDIIS will be used                  
    Max number of expansion vectors:                10
    Pure ADIIS when Max([F,P]) is above              0.1000000000
    Pure SDIIS when Max([F,P]) is below              0.0010000000
 Automatic ElectronSmearing (in case of problematic SCF convergence) disabled



 =================
 P R E C I S I O N  ***  (General: NumInt, NeglectFunctionTails, ...)  ***
 =================
  

 NumInt:           Target precision:                12.0000000000
 -------           Initial precision:               10.0000000000
                   Min. precision (optimization):   10.0000000000

 Neglect Functions:          Basis functions:        0.1000000000E-13
 ------------------          Fit functions:          0.1000000000E-13



 ===========================
 L I N E A R   S C A L I N G
 ===========================
  

 Cut-off radii density fit:                        0.1000000000E-97
 Overlap cut-off criterion AO matrix elements:     0.1000000000E-97
 Cut-offs for Coulomb potential and fitted density:0.1000000000E-97
 Cut-off criterion for Coulomb multipole terms:    0.1000000000E-97
 Progressive Convergence parameter:                 0.000000000    
1
 ***************************************************************************************************



                                            ***************************
                                            *  C O M P U T A T I O N  *
                                            ***************************
  

 Number of elements of the density matrix on this node (used, total):        15        15



 ===========================================
 Numerical Integration : Fuzzy Cells (Becke)
 ===========================================
  
 Becke grid quality: VERYGOOD       
  
 Lebedev angular grid order:             min:  13 max:  41
 Nr. of radial points:                   min:  64 max:  64

 Total nr. of points:         64
 Nr. of blocks:                1
 Block length:                64
 Nr. of dummy points:          0


 Test of Precision of the Numerical Integration Grid
 ===================================================

 Integral of the Total Core Density:                   0.00000000000000



 ========================
 Density Fitting (zlmFit)
 ========================
  
 ZlmFit Fit Quality: VERYGOOD       
  
 Max L-expansion:                        min:   0 max:   0
 Nr. of radial interpolation points:     min: 120 max: 120



 =====
 S C F  ***  ScaSCF  ***
 =====
  

 CYCLE    1
 SCF Error: norm([F,P])=      0.000000000000, max([F,P])=      0.000000000000
 orbitals (Q,E):
 ---------------
 S :1...2            ( 1.00    -0.4983)  ( 0.00     0.1718)
 P :1...1            ( 0.00     0.1562)

 CYCLE    2
 SCF Error: norm([F,P])=      0.033001933656, max([F,P])=      0.033001933656
 orbitals (Q,E):
 ---------------
 S :1...2            ( 1.00    -0.2268)  ( 0.00     0.4005)
 P :1...1            ( 0.00     0.4153)

 CYCLE    3
  SDIIS (wt  0.000):  0.1528  0.8472
 A-DIIS (wt  1.000):  0.0000  1.0000
  DIIS coefficients:  0.0000  1.0000
 SCF Error: norm([F,P])=      0.005954454000, max([F,P])=      0.005954454000
 orbitals (Q,E):
 ---------------
 S :1...2            ( 1.00    -0.2417)  ( 0.00     0.3884)
 P :1...1            ( 0.00     0.4029)

 CYCLE    4
  SDIIS (wt  1.000):  0.1463  0.8537
 A-DIIS (wt  0.000):  0.0000  1.0000
  DIIS coefficients:  0.1463  0.8537
 SCF Error: norm([F,P])=      0.001020399433, max([F,P])=      0.001020399433
 orbitals (Q,E):
 ---------------
 S :1...2            ( 1.00    -0.2394)  ( 0.00     0.3902)
 P :1...1            ( 0.00     0.4048)

 CYCLE    5
  SDIIS (wt  1.000):  0.0014  0.9986
  DIIS coefficients:  0.0014  0.9986
 SCF Error: norm([F,P])=      0.000001436995, max([F,P])=      0.000001436995
 orbitals (Q,E):
 ---------------
 S :1...2            ( 1.00    -0.2394)  ( 0.00     0.3902)
 P :1...1            ( 0.00     0.4048)

 CYCLE    6
  SDIIS (wt  1.000): -0.0002  1.0002
  DIIS coefficients: -0.0002  1.0002
 SCF Error: norm([F,P])=      0.000000000334, max([F,P])=      0.000000000334
 orbitals (Q,E):
 ---------------
 S :1...2            ( 1.00    -0.2394)  ( 0.00     0.3902)
 P :1...1            ( 0.00     0.4048)

 SCF CONVERGED

 CYCLE    7
1
 ***************************************************************************************************



                                                *******************
                                                *  R E S U L T S  *
                                                *******************
  
 *** Using FIT density in Focky
  SDIIS (wt  1.000):  0.0000  1.0000
  DIIS coefficients:  0.0000  1.0000
 SCF Error: norm([F,P])=      0.000000000000, max([F,P])=      0.000000000000

 Scaled ZORA Orbital Energies, per Irrep and Spin:
 =================================================
                        Occup              E (au)              E (eV)       Diff (eV) with prev. cycle
                        -----      --------------------        ------       --------------------------
 S
               1        1.000     -0.23939248892723E+00        -6.514               7.55E-15
               2        0.000      0.39021645958605E+00        10.618
 P
               1        0.000      0.40480887453077E+00        11.015


 Partially Occupied:
               1 S                -0.23939248892723E+00
  
 LUMO :        2 S                 0.39021645958605E+00
  


 Orbital Energies, all Irreps
 ========================================

 Irrep        no.  (spin)   Occup              E (au)                E (eV)
 ---------------------------------------------------------------------------
 S             1             1.00       -0.23939248892723E+00        -6.5142
 S             2             0.00        0.39021645958605E+00        10.6183
 P             1             0.00        0.40480887453077E+00        11.0154


 All Electron Calculation, thus no Orbital Energies of the Core Orbitals are calculated



 =======================================
 M U L L I K E N   P O P U L A T I O N S
 =======================================
  
 The survey below gives for each atom:
 a) the total charge (Z minus electrons)
 b) the net spin polarization (nr of electrons spin-A minus spin-B)
 c) for each spin the atomic electron valence density (integrated) per L-value.

 Atom              Charge    Spin density          S         P         D         F
 ----              ------    ------------       ------    ------    ------    ------
 1 H               0.0000                       1.0000    0.0000    0.0000    0.0000

 Populations of individual BAS functions
 ----------------------------------------
 1 H            0.6465  0.3535  0.0000  0.0000  0.0000

 Gross Charges per Atom (Z minus electrons)
 ==========================================
             0.0000
 Net Total:  0.00000000



 =======================================================================
 Electrostatic potential at the Nuclei due to electrons and other nuclei
 =======================================================================
  
         Atom                  Potential
         ----                  ---------
     1)   H                   0.94379605
 
 
 ========================
 No memory problems found
 ========================
 
 Maximum number of active allocate calls:         306
 
 *******************************************************************************

                             A D F   E X I T
 NORMAL TERMINATION



 =================
 Timing Statistics
 =================
  
 Total Used :                     CPU=        0.45      System=        0.08     Elapsed=        0.70

 Calls  Section                     ( Mean, Percentage )
 ---------------------------------------------------------------------------------------------------
     3  ><      ................      0.00    0.00             0.00    0.00             0.00    2.00
     1  INIT    ................      0.09   20.69             0.02   20.00             0.11   15.71
     1  GEOMET  ................      0.03    6.90             0.00    0.00             0.04    5.71
     1  INPUTA  ................      0.00    0.00             0.00    0.00             0.01    0.86
     1  MAINSY  ................      0.00    0.00             0.02   20.00             0.03    4.57
     1  SYMFIT  ................      0.00    0.00             0.00    0.00             0.00    0.00
     1  CORORT  ................      0.00    0.00             0.00    0.00             0.01    0.86
     1  SYMORB  ................      0.00    0.00             0.00    0.00             0.00    0.00
     1  CLSMAT  ................      0.02    3.45             0.00    0.00             0.02    2.86
     1  ORTHON  ................      0.00    0.00             0.00    0.00             0.01    2.00
     1  GENPT   ................      0.02    3.45             0.00    0.00             0.03    4.43
     1  PTBAS   ................      0.00    0.00             0.02   20.00             0.01    2.14
     7  FOCKY   ................      0.03   48.28             0.00   20.00             0.04   38.29
     7  FOCKTR  ................      0.00    0.00             0.00    0.00             0.00    1.29
     7  SDIIS   ................      0.00    3.45             0.00   20.00             0.01   10.43
     1  COREPS  ................      0.03    6.90             0.00    0.00             0.02    3.00
     1  POPAN   ................      0.00    0.00             0.00    0.00             0.01    1.57
     1  DEBYE   ................      0.02    3.45             0.00    0.00             0.01    1.00
     1  EXIT PROCEDURE .........      0.02    3.45             0.00    0.00             0.02    3.29


 Currently Open Files (EXIT00)
 ====================

 Unit    Access Format  Status   Type       Ident (file)
 -------------------------------------------------------
   3      SEQ    FORM   TRANSP  NORMAL      LOGFILE
                                          ( logfile )

 ***************************************************************************************************
 (LOGFILE)
 <Apr01-2020> <21:41:20>  DIRAC 2019.303  RunTime: Apr01-2020 21:41:20  Nodes: 1  Procs: 1
 <Apr01-2020> <21:41:20>  NORMAL TERMINATION
 <Apr01-2020> <21:41:20>  END
 <Apr01-2020> <21:41:21>  ADF 2019.303  RunTime: Apr01-2020 21:41:21  Nodes: 1  Procs: 1
 <Apr01-2020> <21:41:21>  Hydrogen (DZP)
 <Apr01-2020> <21:41:21>  RunType   : CREATE
 <Apr01-2020> <21:41:21>  Net Charge: 0 (Nuclei minus Electrons)
 <Apr01-2020> <21:41:21>  Symmetry  : ATOM
  Coordinates
    Atom         X           Y           Z   (Angstrom)
    1.H         0.000000    0.000000    0.000000
 <Apr01-2020> <21:41:21>  >>>> CORORT
 <Apr01-2020> <21:41:21>  >>>> CLSMAT
 <Apr01-2020> <21:41:21>  >>>> ORTHON
 <Apr01-2020> <21:41:21>  >>>> GENPT
 <Apr01-2020> <21:41:21>  Block Length=  64
 <Apr01-2020> <21:41:21>  >>>> PTBAS
 <Apr01-2020> <21:41:21>  >>>> CYCLE
 <Apr01-2020> <21:41:21>              |Error|         MaxErr       Wt(A-DIIS)
 <Apr01-2020> <21:41:21>      1      0.00000000      0.00000000
 <Apr01-2020> <21:41:21>      2      0.03300193      0.03300193
 <Apr01-2020> <21:41:21>      3      0.00595445      0.00595445    100.0
 <Apr01-2020> <21:41:21>      4      0.00102040      0.00102040      0.0
 <Apr01-2020> <21:41:21>      5      0.00000144      0.00000144      0.0
 <Apr01-2020> <21:41:21>      6      0.00000000      0.00000000      0.0
 <Apr01-2020> <21:41:21>  SCF converged
 <Apr01-2020> <21:41:21>      7      0.00000000      0.00000000      0.0
 <Apr01-2020> <21:41:21>  >>>> POPAN
 <Apr01-2020> <21:41:21>  >>>> DEBYE
 <Apr01-2020> <21:41:21>  NORMAL TERMINATION
 <Apr01-2020> <21:41:21>  END

 *******************************************************************************
 *                                                                             *
 *  --------------------------------                                           *
 *   Amsterdam Modeling Suite (AMS)              2019.303                      *
 *  --------------------------------                                           *
 *                                               r81909 2020-02-21             *
 *                                                                             *
 *                                                                             *
 *                            =====================                            *
 *                            |                   |                            *
 *                            |     D I R A C     |                            *
 *                            |                   |                            *
 *                            =====================                            *
 *                                                                             *
 *                                                                             *
 *   Online information and documentation:  https://www.scm.com/support/       *
 *   E-mail:  support@scm.com   info@scm.com                                   *
 *                                                                             *
 *   Scientific publications using AMS results must be properly referenced     *
 *   See the User Manuals (or the web site) for recommended citations          *
 *   The terms and conditions of the End User License Agreement apply to       *
 *   the use of AMS, https://www.scm.com/license-terms/                        *
 *                                                                             *
 *********************  x86_64_windows_intel / intelmpi  ***********************
 
 Licensed to: Student project account / Theoretische chemie, Vrije Universiteit / Amsterdam / NETHERLANDS
 SCM User ID: u20153
  
 DIRAC 2019.303  RunTime: Apr01-2020 21:41:21  Nodes: 1  Procs: 1

 Temporary files are created in D:\SCMTMP\/kid_0.2138883510
1
 OXYGEN ATOM all electron RELATIVISTIC, Point Nuc, A and c fr
 N J RN H ZN XION ANUC CLIGHT
 5000    4100.00000000197.36710137  8.00000000  0.00000000   15.994914  0.1370360E+03
  PH   PHI     EPS        DEL        DELRVR
  0.30  0.30     2500.00  0.00001000  0.00001000
 IDIRC  NC1  NDEBU NPRIN  IPUN IRCOR IWCOR
   1   300     0     0     0     0     0
   XALPHA      XLATTER      RNUC
  0.70000000  0.00000000  0.00000000 Point Charge
   XN   XL   XJ      XE          XZ      XDELL
  1.0  0.0  0.5      -5.000       2.000     0.00000
  2.0  0.0  0.5      -1.000       2.000     0.00000
  2.0  1.0  0.5      -1.000       2.000     0.00000
  2.0  1.0  1.5      -1.000       2.000     0.00000
 ICORP=  0  NPCL=  0  DEMP=0.00  PEPS=0.000000
 R(1)=  0.1000000E-08 D=  0.1005080E+01 RNUC=  0.0000000E+00
 converged at cycle   28  DENSITY AVERAGING    0.2400
  MAXIMUM ERROR IN R.V(R) IS   0.81125670E-05
 Q,EY,EV,EZ,ESUM,ETOT,RHO  0.800000E+01 -0.101247E+02 -0.114961E+03 -0.177573E+03 -0.405053E+02 -0.743427E+02  0.414766E-14


 DIRAC CALCULATION
1                    OXYGEN ATOM all electron RELATIVISTIC, Point Nuc, A and c from libtc


 EXCHANGE COEFFICIENT=  0.7000000           TAIL CORRECTION=  0.           NUCLEAR RADIUS=  0.000E+00
0                       ORBITAL    N    L    J     ELECTRONS     EIGENVALUE                DELTA OF EIGENV.

                          1S1/2  1.0  0.0  0.5     2.000       -0.1880014E+02                 0.7264358E-06
                          2S1/2  2.0  0.0  0.5     2.000       -0.8412236E+00                 0.5932752E-05
                          2P1/2  2.0  1.0  0.5     2.000       -0.3063203E+00                 0.5998471E-05
                          2P3/2  2.0  1.0  1.5     2.000       -0.3049609E+00                 0.5986971E-05


                                        NUCLEAR CHARGE=    8.000000
                            INTEGRAL OF CHARGE DENSITY=    8.000000
                           SUM OF THE ORBITAL ENERGIES=    -40.5053
                                          TOTAL ENERGY=    -74.3427
                                        KINETIC ENERGY=     74.4552
                             NUCLEAR ATTRACTION ENERGY=   -177.5730
                             ELECTRON REPULSION ENERGY=     36.3686
                                       EXCHANGE ENERGY=     -7.5935

 *******************************************************************************

                             D I R A C   E X I T
 NORMAL TERMINATION



 =================
 Timing Statistics
 =================
  
 Total Used :                     CPU=        0.12      System=        0.02     Elapsed=        0.16

 Calls  Section                     ( Mean, Percentage )
 ---------------------------------------------------------------------------------------------------
     2  ><      ................      0.00    0.00             0.00    0.00             0.00    0.00
     1  EXIT PROCEDURE .........      0.12  100.00             0.02  100.00             0.16  100.00


 Currently Open Files (EXIT00)
 ====================

 Unit    Access Format  Status   Type       Ident (file)
 -------------------------------------------------------
   3      SEQ    FORM   TRANSP  NORMAL      LOGFILE
                                          ( logfile )
 
Create O   file=DZP-O
XC
  GGA PBE
End
relativistic ZORA
Corepotentials t12.rel
End

 *******************************************************************************
 *                                                                             *
 *  --------------------------------                                           *
 *   Amsterdam Modeling Suite (AMS)              2019.303                      *
 *  --------------------------------                                           *
 *                                               r81909 2020-02-21             *
 *                                                                             *
 *                                                                             *
 *                              =================                              *
 *                              |               |                              *
 *                              |     A D F     |                              *
 *                              |               |                              *
 *                              =================                              *
 *                                                                             *
 *                                                                             *
 *   Online information and documentation:  https://www.scm.com/support/       *
 *   E-mail:  support@scm.com   info@scm.com                                   *
 *                                                                             *
 *   Scientific publications using AMS results must be properly referenced     *
 *   See the User Manuals (or the web site) for recommended citations          *
 *   The terms and conditions of the End User License Agreement apply to       *
 *   the use of AMS, https://www.scm.com/license-terms/                        *
 *                                                                             *
 *********************  x86_64_windows_intel / intelmpi  ***********************
 
 Licensed to: Student project account / Theoretische chemie, Vrije Universiteit / Amsterdam / NETHERLANDS
 SCM User ID: u20153
  
 ADF 2019.303  RunTime: Apr01-2020 21:41:22  Nodes: 1  Procs: 1

 Temporary files are created in D:\SCMTMP\/kid_0.1484500338
 Oxygen (DZP)



 ===========================
 A T T A C H E D   F I L E S
 ===========================
  
 CREATE - Data File:    DZP-O
                        Oxygen (DZP)
 Core Potentials:
         file : t12.rel



 ===============================
 M O D E L   P A R A M E T E R S
 ===============================
  
 DENSITY FUNCTIONAL POTENTIAL (scf)
    LDA:                               PW92                                    == Not Default ==
    Gradient Corrections:              PBEc PBEx                               == Not Default ==

 SPIN  (restricted / unrestr.)
    Molecule:                          Restricted                               

 OTHER ASPECTS
    Relativistic Corrections:          scalar (ZORA,MAPA)                      == Not Default ==

    Nuclear Charge Density Model:      Point Charge Nuclei                      
    Core Treatment:                    Frozen Orbital(s)                        

    Hyperfine or Zeeman Interaction:   ---                                      



 =====================================
 S Y M M E T R Y ,   E L E C T R O N S
 =====================================
  
 Symmetry: ATOM

 Irreducible Representations, including subspecies
 -------------------------------------------------
 S
 P:x  P:y  P:z
 D:z2  D:x2-y2  D:xy  D:xz  D:yz
 F:z3  F:z  F:xyz  F:z2x  F:z2y  F:x  F:y


 Configuration of Valence Electrons
 ==================================

          Occupation Numbers
          -------------------------------------------------
 S        2*2
 P        4
 D        0
 F        0
          -------------------------------------------------

 Total:   8

 Net Charge: 0 (Nuclei minus Electrons)

 Preset values for MO occupations will be applied through SCF cycle no. 1000000
 Thereafter, the program will assign electrons to MOs that are spatially
 similar to the occupied MOs in a "reference" cycle ("KeepOrbitals").
 The reference cycle is always the PREVIOUS cycle: it will evolve with
 the SCF procedure.



 ================================
 (Slater-type)  F U N C T I O N S  ***  (Basis and Fit)  ***
 ================================
  

 Atom Type    1  (O)
 ==============

 Valence Basis Sets:   7
 -----------------------
   1 S    9.800000
   1 S    6.800000
   2 S    1.700000
   2 S    2.820000
   2 P    3.060000
   2 P    1.300000
   3 D    2.000000


 BAS: List of all Elementary Cartesian Basis Functions
 =====================================================

 The numbering in the list below (to the right of the function characteristics) is referred
 to in print-outs of MO eigenvectors and Mulliken populations in the BAS representation
 (as contrasted to the SFO representation).

 Notes:
 1. The functions are characterized by a polynomial prefactor (powers of x,y,z and r) and
    an exponential decay factor alpha.
 2. Since the basis sets are specific for an atom TYPE, the individual functions occur on
    all atoms of that type.
 3. The word 'Core' in the left margin signals that it is a Core Function (CF) : not a
    degree of freedom in the valence set, but only used to ensure orthogonalization of
    the other valence basis functions on the frozen Core Orbitals.


 (power of) X  Y  Z  R     Alpha  on Atom
            ==========     =====     ==========

 O                                    1
                                  ---------------------------------------------------------------------------
            0  0  0  0     9.800      1
            0  0  0  0     6.800      2
            0  0  0  1     1.700      3
            0  0  0  1     2.820      4
            1  0  0  0     3.060      5
            0  1  0  0     3.060      6
            0  0  1  0     3.060      7
            1  0  0  0     1.300      8
            0  1  0  0     1.300      9
            0  0  1  0     1.300     10
            2  0  0  0     2.000     11
            1  1  0  0     2.000     12
            1  0  1  0     2.000     13
            0  2  0  0     2.000     14
            0  1  1  0     2.000     15
            0  0  2  0     2.000     16

 Total number of charge fitting functions (nprimf)        84
 Total number of Cartesian basis functions (naos)         16
 Total number of Cartesian core functions  (ncos)          0



 BAS: List of all Elementary Cartesian Basis Functions
 =====================================================

 The numbering in the list below (to the right of the function characteristics) is referred
 to in print-outs of MO eigenvectors and Mulliken populations in the BAS representation
 (as contrasted to the SFO representation).

 Notes:
 1. The functions are characterized by a polynomial prefactor (powers of x,y,z and r) and
    an exponential decay factor alpha.
 2. Since the basis sets are specific for an atom TYPE, the individual functions occur on
    all atoms of that type.
 3. The word 'Core' in the left margin signals that it is a Core Function (CF) : not a
    degree of freedom in the valence set, but only used to ensure orthogonalization of
    the other valence basis functions on the frozen Core Orbitals.


 (power of) X  Y  Z  R     Alpha  on Atom
            ==========     =====     ==========

 O                                    1
                                  ---------------------------------------------------------------------------
            0  0  0  0     9.800      1
            0  0  0  0     6.800      2
            0  0  0  1     1.700      3
            0  0  0  1     2.820      4
            1  0  0  0     3.060      5
            0  1  0  0     3.060      6
            0  0  1  0     3.060      7
            1  0  0  0     1.300      8
            0  1  0  0     1.300      9
            0  0  1  0     1.300     10
            2  0  0  0     2.000     11
            1  1  0  0     2.000     12
            1  0  1  0     2.000     13
            0  2  0  0     2.000     14
            0  1  1  0     2.000     15
            0  0  2  0     2.000     16
1
 ***************************************************************************************************



                                              ***********************
                                              *  T E C H N I C A L  *
                                              ***********************
  



 =============================================================
 P A R A L L E L I Z A T I O N  and  V E C T O R I Z A T I O N
 =============================================================
  
 Nr of parallel processes:                                1
 Maximum vector length in NumInt loops:                 128



 =====================
 S C F   U P D A T E S
 =====================
  
 Max. nr. of cycles:                               300
 Convergence criterion:                              0.0000000100
   secondary criterion:                              0.0000000100

 Mix parameter (when DIIS does not apply):           0.2000000000
 Special mix parameter for the first cycle:          1.0000000000
 Mixed ADIIS+SDIIS will be used                  
    Max number of expansion vectors:                10
    Pure ADIIS when Max([F,P]) is above              0.1000000000
    Pure SDIIS when Max([F,P]) is below              0.0010000000
 Automatic ElectronSmearing (in case of problematic SCF convergence) disabled



 =================
 P R E C I S I O N  ***  (General: NumInt, NeglectFunctionTails, ...)  ***
 =================
  

 NumInt:           Target precision:                12.0000000000
 -------           Initial precision:               10.0000000000
                   Min. precision (optimization):   10.0000000000

 Neglect Functions:          Basis functions:        0.1000000000E-13
 ------------------          Fit functions:          0.1000000000E-13



 ===========================
 L I N E A R   S C A L I N G
 ===========================
  

 Cut-off radii density fit:                        0.1000000000E-97
 Overlap cut-off criterion AO matrix elements:     0.1000000000E-97
 Cut-offs for Coulomb potential and fitted density:0.1000000000E-97
 Cut-off criterion for Coulomb multipole terms:    0.1000000000E-97
 Progressive Convergence parameter:                 0.000000000    
1
 ***************************************************************************************************



                                            ***************************
                                            *  C O M P U T A T I O N  *
                                            ***************************
  

 Number of elements of the density matrix on this node (used, total):       136       136



 ===========================================
 Numerical Integration : Fuzzy Cells (Becke)
 ===========================================
  
 Becke grid quality: VERYGOOD       
  
 Lebedev angular grid order:             min:  13 max:  41
 Nr. of radial points:                   min:  68 max:  68

 Total nr. of points:         68
 Nr. of blocks:                1
 Block length:                68
 Nr. of dummy points:          0


 Test of Precision of the Numerical Integration Grid
 ===================================================

 Integral of the Total Core Density:                   0.00000000000000



 ========================
 Density Fitting (zlmFit)
 ========================
  
 ZlmFit Fit Quality: VERYGOOD       
  
 Max L-expansion:                        min:   0 max:   0
 Nr. of radial interpolation points:     min: 180 max: 180



 =====
 S C F  ***  ScaSCF  ***
 =====
  

 CYCLE    1
 SCF Error: norm([F,P])=      0.000000000000, max([F,P])=      0.000000000000
 orbitals (Q,E):
 ---------------
 S :1...4            ( 2.00   -32.0039)  ( 2.00    -7.8711)  ( 0.00    -3.4403)  ( 0.00    25.6804)
 P :1...2            ( 4.00    -7.6675)  ( 0.00    -3.1661)
 D :1...1            ( 0.00    -3.3333)

 CYCLE    2
 SCF Error: norm([F,P])=      5.972268379437, max([F,P])=      4.420375319827
 orbitals (Q,E):
 ---------------
 S :1...3            ( 2.00   -16.0377)  ( 2.00    -0.1161)  ( 0.00     1.6879)
 P :1...2            ( 4.00     0.2922)  ( 0.00     1.8929)
 D :1...1            ( 0.00     1.4975)

 CYCLE    3
  SDIIS (wt  0.000):  0.2865  0.7135
 A-DIIS (wt  1.000):  0.3138  0.6862
  DIIS coefficients:  0.3138  0.6862
 SCF Error: norm([F,P])=      2.824887762635, max([F,P])=      2.022294012052
 orbitals (Q,E):
 ---------------
 S :1...3            ( 2.00   -19.5414)  ( 2.00    -1.1973)  ( 0.00     0.6665)
 P :1...2            ( 4.00    -0.6396)  ( 0.00     0.6121)
 D :1...1            ( 0.00     0.8902)

 CYCLE    4
  SDIIS (wt  0.000):  0.2192  0.7808
 A-DIIS (wt  1.000):  0.0000  1.0000
  DIIS coefficients:  0.0000  1.0000
 SCF Error: norm([F,P])=      0.818886559572, max([F,P])=      0.459874196157
 orbitals (Q,E):
 ---------------
 S :1...3            ( 2.00   -18.2923)  ( 2.00    -0.6567)  ( 0.00     1.0430)
 P :1...2            ( 4.00    -0.1219)  ( 0.00     1.0471)
 D :1...1            ( 0.00     1.1828)

 CYCLE    5
  SDIIS (wt  0.000): -0.0608  0.4587  0.6021
 A-DIIS (wt  1.000):  0.0000  0.5239  0.4761
  DIIS coefficients:  0.0000  0.5239  0.4761
 SCF Error: norm([F,P])=      0.898075285733, max([F,P])=      0.542947876283
 orbitals (Q,E):
 ---------------
 S :1...3            ( 2.00   -18.9270)  ( 2.00    -0.8882)  ( 0.00     0.8625)
 P :1...2            ( 4.00    -0.3338)  ( 0.00     0.8273)
 D :1...1            ( 0.00     1.0612)

 CYCLE    6
  SDIIS (wt  0.891): -0.0024  0.0232  0.0076  0.9715
 A-DIIS (wt  0.109):  0.0000  0.0000  0.0000  1.0000
  DIIS coefficients: -0.0021  0.0207  0.0068  0.9746
 SCF Error: norm([F,P])=      0.019171674499, max([F,P])=      0.011826128035
 orbitals (Q,E):
 ---------------
 S :1...3            ( 2.00   -18.9404)  ( 2.00    -0.8902)  ( 0.00     0.8605)
 P :1...2            ( 4.00    -0.3359)  ( 0.00     0.8244)
 D :1...1            ( 0.00     1.0616)

 CYCLE    7
  SDIIS (wt  1.000): -0.0001  0.0012  0.0017  0.0195  0.9777
  DIIS coefficients: -0.0001  0.0012  0.0017  0.0195  0.9777
 SCF Error: norm([F,P])=      0.000674337851, max([F,P])=      0.000415256968
 orbitals (Q,E):
 ---------------
 S :1...3            ( 2.00   -18.9399)  ( 2.00    -0.8900)  ( 0.00     0.8606)
 P :1...2            ( 4.00    -0.3357)  ( 0.00     0.8245)
 D :1...1            ( 0.00     1.0617)

 CYCLE    8
  SDIIS (wt  1.000):  0.0000  0.0000  0.0000 -0.0032  0.0515  0.9517
  DIIS coefficients:  0.0000  0.0000  0.0000 -0.0032  0.0515  0.9517
 SCF Error: norm([F,P])=      0.000049414834, max([F,P])=      0.000030926049
 orbitals (Q,E):
 ---------------
 S :1...3            ( 2.00   -18.9399)  ( 2.00    -0.8900)  ( 0.00     0.8606)
 P :1...2            ( 4.00    -0.3357)  ( 0.00     0.8245)
 D :1...1            ( 0.00     1.0617)

 CYCLE    9
  SDIIS (wt  1.000):  0.0000  0.0000 -0.0001  0.0012  0.0197  0.9791
  DIIS coefficients:  0.0000  0.0000 -0.0001  0.0012  0.0197  0.9791
 SCF Error: norm([F,P])=      0.000001365756, max([F,P])=      0.000000772669
 orbitals (Q,E):
 ---------------
 S :1...3            ( 2.00   -18.9399)  ( 2.00    -0.8900)  ( 0.00     0.8606)
 P :1...2            ( 4.00    -0.3357)  ( 0.00     0.8245)
 D :1...1            ( 0.00     1.0617)

 CYCLE   10
  SDIIS (wt  1.000):  0.0000  0.0000 -0.0169  1.0169
  DIIS coefficients:  0.0000  0.0000 -0.0169  1.0169
 SCF Error: norm([F,P])=      0.000000027212, max([F,P])=      0.000000015708
 orbitals (Q,E):
 ---------------
 S :1...3            ( 2.00   -18.9399)  ( 2.00    -0.8900)  ( 0.00     0.8606)
 P :1...2            ( 4.00    -0.3357)  ( 0.00     0.8245)
 D :1...1            ( 0.00     1.0617)

 CYCLE   11
  SDIIS (wt  1.000):  0.0000  0.0009  0.9991
  DIIS coefficients:  0.0000  0.0009  0.9991
 SCF Error: norm([F,P])=      0.000000000006, max([F,P])=      0.000000000003
 orbitals (Q,E):
 ---------------
 S :1...3            ( 2.00   -18.9399)  ( 2.00    -0.8900)  ( 0.00     0.8606)
 P :1...2            ( 4.00    -0.3357)  ( 0.00     0.8245)
 D :1...1            ( 0.00     1.0617)

 SCF CONVERGED

 CYCLE   12
1
 ***************************************************************************************************



                                                *******************
                                                *  R E S U L T S  *
                                                *******************
  
 *** Using FIT density in Focky
  SDIIS (wt  1.000):  0.0000 -0.0001  0.0334  0.9666
  DIIS coefficients:  0.0000 -0.0001  0.0334  0.9666
 SCF Error: norm([F,P])=      0.000000000000, max([F,P])=      0.000000000000

 Scaled ZORA Orbital Energies, per Irrep and Spin:
 =================================================
                        Occup              E (au)              E (eV)       Diff (eV) with prev. cycle
                        -----      --------------------        ------       --------------------------
 S
               1        2.000     -0.18939901390745E+02      -515.381               7.73E-13
               2        2.000     -0.89001625174727E+00       -24.219               0.00E+00
               3        0.000      0.86062213225135E+00        23.419
               4        0.000      0.37083823259970E+02      1009.102
 P
               1        4.000     -0.33568625180950E+00        -9.134               2.76E-13
               2        0.000      0.82453390032330E+00        22.437
 D
               1        0.000      0.10617201614809E+01        28.891


 Partially Occupied:
               1 P                -0.33568625180950E+00
  
 HOMO :        2 S                -0.89001625174727E+00
 LUMO :        2 P                 0.82453390032330E+00
  


 Orbital Energies, all Irreps
 ========================================

 Irrep        no.  (spin)   Occup              E (au)                E (eV)
 ---------------------------------------------------------------------------
 S             1             2.00       -0.18939901390745E+02      -515.3809
 S             2             2.00       -0.89001625174727E+00       -24.2186
 P             1             4.00       -0.33568625180950E+00        -9.1345
 P             2             0.00        0.82453390032330E+00        22.4367
 S             3             0.00        0.86062213225135E+00        23.4187
 D             1             0.00        0.10617201614809E+01        28.8909
 S             4             0.00        0.37083823259970E+02      1009.1022


 All Electron Calculation, thus no Orbital Energies of the Core Orbitals are calculated



 =======================================
 M U L L I K E N   P O P U L A T I O N S
 =======================================
  
 The survey below gives for each atom:
 a) the total charge (Z minus electrons)
 b) the net spin polarization (nr of electrons spin-A minus spin-B)
 c) for each spin the atomic electron valence density (integrated) per L-value.

 Atom              Charge    Spin density          S         P         D         F
 ----              ------    ------------       ------    ------    ------    ------
 1 O               0.0000                       4.0000    4.0000    0.0000    0.0000

 Populations of individual BAS functions
 ----------------------------------------
 1 O            0.5605  1.4160  0.8381  1.1854  0.6710  0.6710  0.6710  0.6623  0.6623  0.6623
                0.0000  0.0000  0.0000  0.0000  0.0000  0.0000

 Gross Charges per Atom (Z minus electrons)
 ==========================================
             0.0000
 Net Total:  0.00000000



 =======================================================================
 Electrostatic potential at the Nuclei due to electrons and other nuclei
 =======================================================================
  
         Atom                  Potential
         ----                  ---------
     1)   O                  22.22790021
 
 
 ========================
 No memory problems found
 ========================
 
 Maximum number of active allocate calls:         376
 
 *******************************************************************************

                             A D F   E X I T
 NORMAL TERMINATION



 =================
 Timing Statistics
 =================
  
 Total Used :                     CPU=        0.67      System=        0.12     Elapsed=        0.91

 Calls  Section                     ( Mean, Percentage )
 ---------------------------------------------------------------------------------------------------
     3  ><      ................      0.00    0.00             0.00    0.00             0.00    1.65
     1  INIT    ................      0.08   11.63             0.00    0.00             0.11   11.80
     1  GEOMET  ................      0.02    2.33             0.02   12.50             0.04    4.52
     1  INPUTA  ................      0.00    0.00             0.00    0.00             0.00    0.55
     1  MAINSY  ................      0.02    2.33             0.00    0.00             0.03    3.53
     1  SYMFIT  ................      0.02    2.33             0.00    0.00             0.00    0.22
     1  CORORT  ................      0.00    0.00             0.00    0.00             0.01    0.66
     1  SYMORB  ................      0.00    0.00             0.00    0.00             0.00    0.22
     1  CLSMAT  ................      0.02    2.33             0.00    0.00             0.01    1.54
     1  ORTHON  ................      0.00    0.00             0.02   12.50             0.01    1.32
     1  GENPT   ................      0.02    2.33             0.00    0.00             0.03    2.87
     1  PTBAS   ................      0.02    2.33             0.00    0.00             0.01    1.32
    12  FOCKY   ................      0.03   55.81             0.01   50.00             0.04   49.39
    12  FOCKTR  ................      0.00    2.33             0.00    0.00             0.00    1.32
    12  SDIIS   ................      0.00    6.98             0.00   12.50             0.01   11.14
     1  COREPS  ................      0.03    4.65             0.00    0.00             0.03    2.98
     1  POPAN   ................      0.00    0.00             0.02   12.50             0.01    1.43
     1  DEBYE   ................      0.00    0.00             0.00    0.00             0.01    0.77
     1  EXIT PROCEDURE .........      0.03    4.65             0.00    0.00             0.02    2.76


 Currently Open Files (EXIT00)
 ====================

 Unit    Access Format  Status   Type       Ident (file)
 -------------------------------------------------------
   3      SEQ    FORM   TRANSP  NORMAL      LOGFILE
                                          ( logfile )

 ***************************************************************************************************
 (LOGFILE)
 <Apr01-2020> <21:41:20>  DIRAC 2019.303  RunTime: Apr01-2020 21:41:20  Nodes: 1  Procs: 1
 <Apr01-2020> <21:41:20>  NORMAL TERMINATION
 <Apr01-2020> <21:41:20>  END
 <Apr01-2020> <21:41:21>  ADF 2019.303  RunTime: Apr01-2020 21:41:21  Nodes: 1  Procs: 1
 <Apr01-2020> <21:41:21>  Hydrogen (DZP)
 <Apr01-2020> <21:41:21>  RunType   : CREATE
 <Apr01-2020> <21:41:21>  Net Charge: 0 (Nuclei minus Electrons)
 <Apr01-2020> <21:41:21>  Symmetry  : ATOM
  Coordinates
    Atom         X           Y           Z   (Angstrom)
    1.H         0.000000    0.000000    0.000000
 <Apr01-2020> <21:41:21>  >>>> CORORT
 <Apr01-2020> <21:41:21>  >>>> CLSMAT
 <Apr01-2020> <21:41:21>  >>>> ORTHON
 <Apr01-2020> <21:41:21>  >>>> GENPT
 <Apr01-2020> <21:41:21>  Block Length=  64
 <Apr01-2020> <21:41:21>  >>>> PTBAS
 <Apr01-2020> <21:41:21>  >>>> CYCLE
 <Apr01-2020> <21:41:21>              |Error|         MaxErr       Wt(A-DIIS)
 <Apr01-2020> <21:41:21>      1      0.00000000      0.00000000
 <Apr01-2020> <21:41:21>      2      0.03300193      0.03300193
 <Apr01-2020> <21:41:21>      3      0.00595445      0.00595445    100.0
 <Apr01-2020> <21:41:21>      4      0.00102040      0.00102040      0.0
 <Apr01-2020> <21:41:21>      5      0.00000144      0.00000144      0.0
 <Apr01-2020> <21:41:21>      6      0.00000000      0.00000000      0.0
 <Apr01-2020> <21:41:21>  SCF converged
 <Apr01-2020> <21:41:21>      7      0.00000000      0.00000000      0.0
 <Apr01-2020> <21:41:21>  >>>> POPAN
 <Apr01-2020> <21:41:21>  >>>> DEBYE
 <Apr01-2020> <21:41:21>  NORMAL TERMINATION
 <Apr01-2020> <21:41:21>  END
 <Apr01-2020> <21:41:21>  DIRAC 2019.303  RunTime: Apr01-2020 21:41:21  Nodes: 1  Procs: 1
 <Apr01-2020> <21:41:22>  NORMAL TERMINATION
 <Apr01-2020> <21:41:22>  END
 <Apr01-2020> <21:41:22>  ADF 2019.303  RunTime: Apr01-2020 21:41:22  Nodes: 1  Procs: 1
 <Apr01-2020> <21:41:22>  Oxygen (DZP)
 <Apr01-2020> <21:41:22>  RunType   : CREATE
 <Apr01-2020> <21:41:22>  Net Charge: 0 (Nuclei minus Electrons)
 <Apr01-2020> <21:41:22>  Symmetry  : ATOM
  Coordinates
    Atom         X           Y           Z   (Angstrom)
    1.O         0.000000    0.000000    0.000000
 <Apr01-2020> <21:41:22>  >>>> CORORT
 <Apr01-2020> <21:41:22>  >>>> CLSMAT
 <Apr01-2020> <21:41:22>  >>>> ORTHON
 <Apr01-2020> <21:41:22>  >>>> GENPT
 <Apr01-2020> <21:41:22>  Block Length=  68
 <Apr01-2020> <21:41:22>  >>>> PTBAS
 <Apr01-2020> <21:41:22>  >>>> CYCLE
 <Apr01-2020> <21:41:22>              |Error|         MaxErr       Wt(A-DIIS)
 <Apr01-2020> <21:41:22>      1      0.00000000      0.00000000
 <Apr01-2020> <21:41:22>      2      5.97226838      4.42037532
 <Apr01-2020> <21:41:22>      3      2.82488776      2.02229401    100.0
 <Apr01-2020> <21:41:22>      4      0.81888656      0.45987420    100.0
 <Apr01-2020> <21:41:22>      5      0.89807529      0.54294788    100.0
 <Apr01-2020> <21:41:22>      6      0.01917167      0.01182613     10.9
 <Apr01-2020> <21:41:22>      7      0.00067434      0.00041526      0.0
 <Apr01-2020> <21:41:22>      8      0.00004941      0.00003093      0.0
 <Apr01-2020> <21:41:23>      9      0.00000137      0.00000077      0.0
 <Apr01-2020> <21:41:23>     10      0.00000003      0.00000002      0.0
 <Apr01-2020> <21:41:23>     11      0.00000000      0.00000000      0.0
 <Apr01-2020> <21:41:23>  SCF converged
 <Apr01-2020> <21:41:23>     12      0.00000000      0.00000000      0.0
 <Apr01-2020> <21:41:23>  >>>> POPAN
 <Apr01-2020> <21:41:23>  >>>> DEBYE
 <Apr01-2020> <21:41:23>  NORMAL TERMINATION
 <Apr01-2020> <21:41:23>  END


 Parallel Execution: Process Information
 ==============================================================================
 Rank   Node Name                              NodeID   MyNodeRank  NodeMaster
    0   DESKTOP-1M8FOJT                           0          0          0
    1   DESKTOP-1M8FOJT                           0          1         -1
    2   DESKTOP-1M8FOJT                           0          2         -1
    3   DESKTOP-1M8FOJT                           0          3         -1
 ==============================================================================


May use up to 3883MB of RAM as shared memory on node 0
 
AnalyticalFreq
end

Geometry
end

Relativistic Scalar ZORA

SYMMETRY NOSYM

XC
  GGA PBE
end

atoms
      1         O      0.000000      0.000000      0.000000
      2         H      0.277400      0.892900      0.254400
      3         H      0.606800     -0.238300     -0.716900
end

Fragments
H t21.H
O t21.O
End

 *******************************************************************************
 *                                                                             *
 *  --------------------------------                                           *
 *   Amsterdam Modeling Suite (AMS)              2019.303                      *
 *  --------------------------------                                           *
 *                                               r81909 2020-02-21             *
 *                                                                             *
 *                                                                             *
 *                              =================                              *
 *                              |               |                              *
 *                              |     A D F     |                              *
 *                              |               |                              *
 *                              =================                              *
 *                                                                             *
 *                                                                             *
 *   Online information and documentation:  https://www.scm.com/support/       *
 *   E-mail:  support@scm.com   info@scm.com                                   *
 *                                                                             *
 *   Scientific publications using AMS results must be properly referenced     *
 *   See the User Manuals (or the web site) for recommended citations          *
 *   The terms and conditions of the End User License Agreement apply to       *
 *   the use of AMS, https://www.scm.com/license-terms/                        *
 *                                                                             *
 *********************  x86_64_windows_intel / intelmpi  ***********************
 
 Licensed to: Student project account / Theoretische chemie, Vrije Universiteit / Amsterdam / NETHERLANDS
 SCM User ID: u20153
  
 ADF 2019.303  RunTime: Apr01-2020 21:41:23  Nodes: 1  Procs: 4

 Temporary files are created in D:\SCMTMP\/kid_0.822078127

Communication costs MPI_COMM_WORLD:      1.318 usec per message,   0.0055 usec per 8-byte item
Communication costs for intra-node:      1.306 usec per message,   0.0054 usec per 8-byte item

 *** (NO TITLE) ***



 ===========================
 A T T A C H E D   F I L E S
 ===========================
  



 ===============================
 M O D E L   P A R A M E T E R S
 ===============================
  
 DENSITY FUNCTIONAL POTENTIAL (scf)
    LDA:                               PW92                                    == Not Default ==
    Gradient Corrections:              PBEc PBEx                               == Not Default ==

 SPIN  (restricted / unrestr.)
    Molecule:                          Restricted                               
    Fragments:                         Restricted                               

 OTHER ASPECTS
    Relativistic Corrections:          scalar (ZORA,MAPA)                      == Not Default ==

    Nuclear Charge Density Model:      Point Charge Nuclei                      
    Core Treatment:                    Frozen Orbital(s)                        

    Hyperfine or Zeeman Interaction:   ---                                      


 Fragment File(s)
 ----------------
 O:
         file : t21.O
         jobid: ADF 2019.303  RunTime: Apr01-2020 21:41:22  Nodes: 1  Procs: 1
         title: Oxygen (DZP)
 H:
         file : t21.H
         jobid: ADF 2019.303  RunTime: Apr01-2020 21:41:21  Nodes: 1  Procs: 1
         title: Hydrogen (DZP)



                                   *********************************************
                                   *  R U N   T Y P E : GEOMETRY OPTIMIZATION  *
                                   *********************************************
  



 ===============
 G E O M E T R Y  ***  Planar Molecule  ***
 ===============
  

 ATOMS
 =====                            X Y Z                    CHARGE
                                (Angstrom)             Nucl     +Core       At.Mass
                       --------------------------    ----------------       -------
    1  O               0.0000    0.0000    0.0000      8.00      8.00       15.9949
    2  H               0.2774    0.8929    0.2544      1.00      1.00        1.0078
    3  H               0.6068   -0.2383   -0.7169      1.00      1.00        1.0078


 FRAGMENTS
 =========                                     Atoms in this Fragment     Cart. coord.s (Angstrom)
                                               -------------------------------------------------------
    1  O                                                 1  O            0.0000    0.0000    0.0000
    2  H                                                 2  H            0.2774    0.8929    0.2544
    3  H                                                 3  H            0.6068   -0.2383   -0.7169


 Interatomic Distance Matrix (Angstrom)
 --------------------------------------

   1)     0.000
   2)     0.969   0.000
   3)     0.969   1.527   0.000

 Min. Distance =    0.9690
 Max. Distance =    1.5269



 =====================================
 S Y M M E T R Y ,   E L E C T R O N S
 =====================================
  
 Symmetry: NOSYM

 Irreducible Representations, including subspecies
 -------------------------------------------------
 A


 Configuration of Valence Electrons
 ==================================
 ( determined in the SCF procedure )

 Total:   10

 Net Charge: 0 (Nuclei minus Electrons)

 Aufbau principle for MO occupations will be applied through SCF cycle no.     150
 Thereafter, the program will assign electrons to MOs that are spatially
 similar to the occupied MOs in a "reference" cycle ("KeepOrbitals").
 The reference cycle is always the PREVIOUS cycle: it will evolve with
 the SCF procedure.
1
 ***************************************************************************************************



                                      ****************************************
                                      *  B U I L D : (Fragments, Functions)  *
                                      ****************************************
  

 Total nr. of (C)SFOs (summation over all irreps) :    25

 Specify PRINT SFO in the input file to get a full list

 Nr. of SFOs for ir.rep.           A :    25



 ================================
 (Slater-type)  F U N C T I O N S  ***  (Basis and Fit)  ***
 ================================
  

 Atom Type    1  (O)
 ==============

 Valence Basis Sets:   7
 -----------------------
   1 S    9.800000
   1 S    6.800000
   2 S    1.700000
   2 S    2.820000
   2 P    3.060000
   2 P    1.300000
   3 D    2.000000

 Atom Type    2  (H)
 ==============

 Valence Basis Sets:   3
 -----------------------
   1 S    0.760000
   1 S    1.280000
   2 P    1.250000


 BAS: List of all Elementary Cartesian Basis Functions
 =====================================================

 The numbering in the list below (to the right of the function characteristics) is referred
 to in print-outs of MO eigenvectors and Mulliken populations in the BAS representation
 (as contrasted to the SFO representation).

 Notes:
 1. The functions are characterized by a polynomial prefactor (powers of x,y,z and r) and
    an exponential decay factor alpha.
 2. Since the basis sets are specific for an atom TYPE, the individual functions occur on
    all atoms of that type.
 3. The word 'Core' in the left margin signals that it is a Core Function (CF) : not a
    degree of freedom in the valence set, but only used to ensure orthogonalization of
    the other valence basis functions on the frozen Core Orbitals.


 (power of) X  Y  Z  R     Alpha  on Atom
            ==========     =====     ==========

 O                                    1
                                  ---------------------------------------------------------------------------
            0  0  0  0     9.800      1
            0  0  0  0     6.800      2
            0  0  0  1     1.700      3
            0  0  0  1     2.820      4
            1  0  0  0     3.060      5
            0  1  0  0     3.060      6
            0  0  1  0     3.060      7
            1  0  0  0     1.300      8
            0  1  0  0     1.300      9
            0  0  1  0     1.300     10
            2  0  0  0     2.000     11
            1  1  0  0     2.000     12
            1  0  1  0     2.000     13
            0  2  0  0     2.000     14
            0  1  1  0     2.000     15
            0  0  2  0     2.000     16

 H                                    2    3
                                  ---------------------------------------------------------------------------
            0  0  0  0     0.760     17   22
            0  0  0  0     1.280     18   23
            1  0  0  0     1.250     19   24
            0  1  0  0     1.250     20   25
            0  0  1  0     1.250     21   26

 Total number of charge fitting functions (nprimf)       184
 Total number of Cartesian basis functions (naos)         26
 Total number of Cartesian core functions  (ncos)          0



 Coordinates (Cartesian)
 =======================

     Atom                    bohr                                 angstrom                 Geometric Variables
                   X           Y           Z              X           Y           Z       (0:frozen, *:LT par.)
 --------------------------------------------------------------------------------------------------------------
     1 O       0.000000    0.000000    0.000000       0.000000    0.000000    0.000000      1       2       3
     2 H       0.524210    1.687336    0.480746       0.277400    0.892900    0.254400      4       5       6
     3 H       1.146686   -0.450322   -1.354745       0.606800   -0.238300   -0.716900      7       8       9
 --------------------------------------------------------------------------------------------------------------
1
 ***************************************************************************************************



                                              ***********************
                                              *  T E C H N I C A L  *
                                              ***********************
  



 =============================================================
 P A R A L L E L I Z A T I O N  and  V E C T O R I Z A T I O N
 =============================================================
  
 Nr of parallel processes:                                4
 Maximum vector length in NumInt loops:                 128



 ===============================
 G E O M E T R Y   U P D A T E S
 ===============================
  
 Optimization coordinates:                       Delocalized
 Optimization code branch:                       NEW
 Hessian update method:                          BFGS (Broyden-Fletcher-Goldfarb-Shanno)

 Iterative Geometry Improvements:
    Max. nr. of iterations:                         30
    Convergence criteria:
         Change in energy (hartree):                 0.0010000000
         Gradients (au/Angstrom):                    0.0010000000
         Cart/bondlength changes (Angstrom):         0.0100000000
    Max. step to take:
         Trust Radius:                               0.2000000000

 GDIIS (Geometry Direct Inversion in Iteration Space):
    First geometry cycle:                            0
    Max. number expansion vectors:                   5



 =====================
 S C F   U P D A T E S
 =====================
  
 Max. nr. of cycles:                               300
 Convergence criterion:                              0.0000010000
   secondary criterion:                              0.0010000000

 Mix parameter (when DIIS does not apply):           0.2000000000
 Mixed ADIIS+SDIIS will be used                  
    Max number of expansion vectors:                10
    Pure ADIIS when Max([F,P]) is above              0.1000000000
    Pure SDIIS when Max([F,P]) is below              0.0010000000



 =================
 P R E C I S I O N  ***  (General: NumInt, NeglectFunctionTails, ...)  ***
 =================
  

 NumInt:           Target precision:                 4.0000000000
 -------           Initial precision:                4.0000000000
                   Min. precision (optimization):    4.0000000000

 Neglect Functions:          Basis functions:        0.1000000000E-05
 ------------------          Fit functions:          0.1000000000E-05



 ===========================
 L I N E A R   S C A L I N G
 ===========================
  

 Cut-off radii density fit:                        0.1000000000E-07
 Overlap cut-off criterion AO matrix elements:     0.1000000000E-05
 Cut-offs for Coulomb potential and fitted density:0.1000000000E-07
 Cut-off criterion for Coulomb multipole terms:    0.1000000000E-07
 Progressive Convergence parameter:                 0.000000000    
1
 ***************************************************************************************************



                                            ***************************
                                            *  C O M P U T A T I O N  *
                                            ***************************
  

 Number of elements of the density matrix on this node (used, total):       136       351



 ===========================================
 Numerical Integration : Fuzzy Cells (Becke)
 ===========================================
  
 Becke grid quality: NORMAL         
  
 Lebedev angular grid order:             min:  11 max:  23
 Nr. of radial points:                   min:  46 max:  49

 Total nr. of points:      18168
 Nr. of blocks:              142
 Block length:               128
 Nr. of dummy points:          8


 Test of Precision of the Numerical Integration Grid
 ===================================================

 Integral of the Total Core Density:                   0.00000000000000



 ========================
 Density Fitting (zlmFit)
 ========================
  
 ZlmFit Fit Quality: NORMAL         
  
 Max L-expansion:                        min:   5 max:   6
 Nr. of radial interpolation points:     min:  36 max:  54



 =====
 S C F  ***  ScaSCF  ***
 =====
  
 Initial density matrix is calculated as sum of fragments

 CYCLE    1
 SCF Error: norm([F,P])=      2.191199847412, max([F,P])=      1.139950891904
 orbitals (Q,E):
 ---------------
 A :1...15           ( 2.00   -19.0526)  ( 2.00    -1.1076)  ( 2.00    -0.6329)  ( 2.00    -0.5162)
                     ( 2.00    -0.4413)  ( 0.00    -0.0606)  ( 0.00     0.0188)  ( 0.00     0.3006)
                     ( 0.00     0.3132)  ( 0.00     0.3444)  ( 0.00     0.4167)  ( 0.00     0.4807)
                     ( 0.00     0.7438)  ( 0.00     0.7707)  ( 0.00     0.8789)

 CYCLE    2
  SDIIS (wt  0.000):  0.1226  0.8774
 A-DIIS (wt  1.000):  0.6993  0.3007
  DIIS coefficients:  0.6993  0.3007
 SCF Error: norm([F,P])=      0.767621336113, max([F,P])=      0.313963004202
 orbitals (Q,E):
 ---------------
 A :1...6            ( 2.00   -18.8220)  ( 2.00    -0.9984)  ( 2.00    -0.5404)  ( 2.00    -0.4054)
                     ( 2.00    -0.3269)  ( 0.00    -0.0323)

 CYCLE    3
  SDIIS (wt  0.000):  0.0042 -0.1734  1.1692
 A-DIIS (wt  1.000):  0.1840  0.0000  0.8160
  DIIS coefficients:  0.1840  0.0000  0.8160
 SCF Error: norm([F,P])=      0.125129457719, max([F,P])=      0.046871846775
 orbitals (Q,E):
 ---------------
 A :1...6            ( 2.00   -18.7786)  ( 2.00    -0.9403)  ( 2.00    -0.4896)  ( 2.00    -0.3488)
                     ( 2.00    -0.2690)  ( 0.00    -0.0106)

 CYCLE    4
  SDIIS (wt  0.789):  0.1235 -0.2660  1.1426
 A-DIIS (wt  0.211):  0.0000  0.1261  0.8739
  DIIS coefficients:  0.0974 -0.1833  1.0859
 SCF Error: norm([F,P])=      0.056959748999, max([F,P])=      0.021876942844
 orbitals (Q,E):
 ---------------
 A :1...6            ( 2.00   -18.8045)  ( 2.00    -0.9385)  ( 2.00    -0.4868)  ( 2.00    -0.3475)
                     ( 2.00    -0.2679)  ( 0.00    -0.0074)

 CYCLE    5
  SDIIS (wt  0.966):  0.0092 -0.0424  0.2057  0.8275
 A-DIIS (wt  0.034):  0.0000  0.0000  0.0000  1.0000
  DIIS coefficients:  0.0089 -0.0410  0.1988  0.8333
 SCF Error: norm([F,P])=      0.011418041045, max([F,P])=      0.004325777712
 orbitals (Q,E):
 ---------------
 A :1...6            ( 2.00   -18.8003)  ( 2.00    -0.9373)  ( 2.00    -0.4860)  ( 2.00    -0.3462)
                     ( 2.00    -0.2665)  ( 0.00    -0.0074)

 CYCLE    6
  SDIIS (wt  1.000):  0.0018 -0.0077  0.0400  0.2271  0.7389
  DIIS coefficients:  0.0018 -0.0077  0.0400  0.2271  0.7389
 SCF Error: norm([F,P])=      0.001125792650, max([F,P])=      0.000416468650
 orbitals (Q,E):
 ---------------
 A :1...6            ( 2.00   -18.8006)  ( 2.00    -0.9374)  ( 2.00    -0.4860)  ( 2.00    -0.3463)
                     ( 2.00    -0.2666)  ( 0.00    -0.0074)

 CYCLE    7
  SDIIS (wt  1.000):  0.0000  0.0003 -0.0008  0.0102  0.1265  0.8638
  DIIS coefficients:  0.0000  0.0003 -0.0008  0.0102  0.1265  0.8638
 SCF Error: norm([F,P])=      0.000079720189, max([F,P])=      0.000027858974
 orbitals (Q,E):
 ---------------
 A :1...6            ( 2.00   -18.8006)  ( 2.00    -0.9374)  ( 2.00    -0.4860)  ( 2.00    -0.3464)
                     ( 2.00    -0.2666)  ( 0.00    -0.0074)

 CYCLE    8
  SDIIS (wt  1.000):  0.0000  0.0000 -0.0001  0.0003  0.0097  0.0769  0.9131
  DIIS coefficients:  0.0000  0.0000 -0.0001  0.0003  0.0097  0.0769  0.9131
 SCF Error: norm([F,P])=      0.000001809267, max([F,P])=      0.000000663732
 orbitals (Q,E):
 ---------------
 A :1...6            ( 2.00   -18.8006)  ( 2.00    -0.9374)  ( 2.00    -0.4860)  ( 2.00    -0.3464)
                     ( 2.00    -0.2666)  ( 0.00    -0.0074)

 SCF CONVERGED

 CYCLE    9
 *** Using FIT density in Focky
  SDIIS (wt  1.000):  0.0000  0.0000  0.0000  0.0000  0.0004  0.0045  0.0917  0.9034
  DIIS coefficients:  0.0000  0.0000  0.0000  0.0000  0.0004  0.0045  0.0917  0.9034
 SCF Error: norm([F,P])=      0.000000208943, max([F,P])=      0.000000055571
 orbitals (Q,E):
 ---------------
 A :1...15           ( 2.00   -18.8006)  ( 2.00    -0.9374)  ( 2.00    -0.4860)  ( 2.00    -0.3464)
                     ( 2.00    -0.2666)  ( 0.00    -0.0074)  ( 0.00     0.0837)  ( 0.00     0.3649)
                     ( 0.00     0.3777)  ( 0.00     0.4194)  ( 0.00     0.5007)  ( 0.00     0.5450)
                     ( 0.00     0.8481)  ( 0.00     0.8554)  ( 0.00     1.0117)


 Fit test: (difference of exact and fit density, squared integrated, result summed over spins)
         SCF:                                          0.00010637864372

 Gross Charges per Atom (Z minus electrons)
 ==========================================
            -0.3828    0.1915    0.1914
 Net Total:  0.00000000



 =================================================================
 M U L T I P O L E   D E R I V E D   C H A R G E   A N A L Y S I S
 =================================================================

 See: M. Swart, P.Th. van Duijnen, J.G. Snijders, J.Comput.Chem., (2001), p. 79-88.

 --------------------------------------- 
 Multipole derived atomic charges (a.u.)
 --------------------------------------- 

        Atom    Level:     MDC-m        MDC-d        MDC-q
 ---------------------------------------------------------
     1     O           -0.175657    -0.622167    -0.386637
     2     H            0.087527     0.311097     0.206996
     3     H            0.088130     0.311070     0.179641
 *** Using NEW gradient routines ***


 Geometry CYCLE 1
 ==============

 Energy gradients wrt nuclear displacements
 ==========================================

     Atom      Cartesian (a.u./angstrom)
                 X         Y         Z
 ----------------------------------------
     1 O     0.012937  0.009700 -0.006695
     2 H    -0.004384 -0.012171 -0.002893
     3 H    -0.008552  0.002471  0.009588
 ----------------------------------------
 
----------------------------------------------------------------------
Geometry Convergence after Step   1       (Hartree/Angstrom,Angstrom)
----------------------------------------------------------------------
current energy                               -0.51376088 Hartree
energy change                      -0.51376088     0.00100000    F
constrained gradient max            0.01293659     0.00100000    F
constrained gradient rms            0.00851907     0.00066667    F
gradient max                        0.01293659
gradient rms                        0.00851907
cart. step max                      0.00542526     0.01000000    T
cart. step rms                      0.00321649     0.00666667    T
 


 Coordinates (Cartesian)
 =======================

     Atom                    bohr                                 angstrom                 Geometric Variables
                   X           Y           Z              X           Y           Z       (0:frozen, *:LT par.)
 --------------------------------------------------------------------------------------------------------------
     1 O      -0.006123   -0.004600    0.003164      -0.003240   -0.002434    0.001674      1       2       3
     2 H       0.524982    1.697589    0.485968       0.277808    0.898325    0.257163      4       5       6
     3 H       1.152037   -0.455974   -1.363130       0.609632   -0.241291   -0.721337      7       8       9
 --------------------------------------------------------------------------------------------------------------

 Number of elements of the density matrix on this node (used, total):       136       351



 ===========================================
 Numerical Integration : Fuzzy Cells (Becke)
[...]
 ===========================
 Vibrations and Normal Modes  ***  (cartesian coordinates, NOT mass-weighted)  ***
 ===========================
  
 The headers on the normal mode eigenvectors below give the Frequency in cm-1
 (a negative value means an imaginary frequency, no output for (almost-)zero frequencies)


                      1603.041                      3620.287                      3722.055
              ------------------------      ------------------------      ------------------------
    1.O         -0.053  -0.039   0.028        -0.037  -0.027   0.019         0.015  -0.052  -0.044
    2.H          0.509  -0.005  -0.488         0.165   0.653   0.223         0.203   0.647   0.182
    3.H          0.326   0.623   0.051         0.415  -0.219  -0.523        -0.445   0.172   0.524




 List of All Frequencies:


 Intensities
 ===========

               Frequency       Dipole Strength        Absorption Intensity (degeneracy not counted)
                 cm-1           1e-40 esu2 cm2          km/mole
              ----------          ----------          ----------
             1603.040839          194.118736           77.999193
             3620.287391            5.993040            5.438364
             3722.055254           85.488382           79.756848



 ============================
 Statistical Thermal Analysis  ***  ideal gas assumed  ***
 ============================
  
 Pressure:                  1.000000 atm.
 Temperature:             298.150000 K



 Moments of Inertia [amu*bohr^2] and principal axis
 ==================================================

           2.3395          4.2347          6.5741
 ------------------------------------------------
          -0.2157          0.7409          0.6360
           0.7409          0.5484         -0.3877
           0.6361         -0.3876          0.6672


 The rotational contribution to the molecular entropy includes
 a term, dependent on the symmetry number sigma. The results 
 reported below were computed using sigma = 2, determined from
 the point group symmetry of the input geometry (C(2V)). 
 If this is not the correct symmetry, try symmetrizing the molecule before
 running the calculation (note: linear molecules should be aligned along one
 of the Cartesian axes).
 Contributions from frequencies below 20 1/cm are not included in
 the vibrational sums. Their contributions, if any, are reported separately.


     Temp                                                       Transl     Rotat    Vibrat     Total
     ----                                                       ------     -----    ------     -----

     298.15   Entropy (cal/mole-K):                             34.608    10.575     0.008    45.191
              Internal Energy (Kcal/mole):                       0.889     0.889    12.790    14.568
              Constant Volume Heat Capacity (cal/mole-K):        2.981     2.981     0.052     6.014

              Summary of energy terms
                                                   hartree              eV         kcal/mol           kJ/mol
                                      --------------------     -----------       ----------      -----------
              Bond Energy:              -0.513837689726388        -13.9822          -322.44         -1349.08
              Internal Energy:           0.023214834446210          0.6317            14.57            60.95
              pV/n = RT:                 0.000944186013486          0.0257             0.59             2.48
              Enthalpy H:               -0.489678669266693        -13.3248          -307.28         -1285.65
              -T*S:                     -0.021471728334097         -0.5843           -13.47           -56.37
              Gibbs free energy:        -0.511150397600790        -13.9091          -320.75         -1342.03
 

 ***************************************************************************************************
 


====================================================================
*** DONE CALCULATING ANALYTICAL SECOND DERIVATIVES OF THE ENERGY ***
====================================================================

 
 
 ========================
 No memory problems found
 ========================
 
 Maximum number of active allocate calls:         783
 
 *******************************************************************************

                             A D F   E X I T
 NORMAL TERMINATION



 =================
 Timing Statistics
 =================
  
 Total Used :                     CPU=        7.31      System=        1.06     Elapsed=        9.68

 Calls  Section                     ( Mean, Percentage )
 ---------------------------------------------------------------------------------------------------
     3  ><      ................      0.00    0.00             0.00    0.00             0.01    0.18
     1  INIT    ................      0.50    6.84             0.02    1.47             0.54    5.54
     1  GEOMET  ................      0.08    1.07             0.03    2.94             0.12    1.24
     1  FRAGM   ................      0.00    0.00             0.05    4.41             0.06    0.59
     1  INPUTA  ................      0.00    0.00             0.00    0.00             0.00    0.04
     1  ATDEN   ................      0.00    0.00             0.00    0.00             0.05    0.54
     4  MAINSY  ................      0.02    1.28             0.02    5.88             0.14    5.91
     4  SYMFIT  ................      0.00    0.21             0.00    0.00             0.00    0.13
     4  CORORT  ................      0.00    0.00             0.00    0.00             0.01    0.24
     4  SYMORB  ................      0.00    0.21             0.00    0.00             0.01    0.22
     4  CLSMAT  ................      0.02    0.85             0.00    1.47             0.03    1.03
     4  ORTHON  ................      0.00    0.21             0.00    0.00             0.01    0.52
     4  GENPT   ................      0.04    2.14             0.01    2.94             0.06    2.43
     4  PTBAS   ................      0.02    1.28             0.01    2.94             0.04    1.55
    26  FOCKY   ................      0.07   25.00             0.01   20.59             0.08   21.67
    26  FOCKTR  ................      0.00    0.64             0.00    4.41             0.00    0.85
    26  SDIIS   ................      0.00    1.71             0.00    4.41             0.01    3.60
     4  TOTEN   ................      0.23   12.82             0.02    7.35             0.27   11.18
     4  POPAN   ................      0.00    0.00             0.00    1.47             0.01    0.56
     4  DEBYE   ................      0.00    0.00             0.00    0.00             0.01    0.48
     4  INPUTE  ................      0.00    0.21             0.00    0.00             0.00    0.05
     4  SYMORE  ................      0.00    0.00             0.00    0.00             0.00    0.06
     7  ELNRGY  ................      0.02    2.35             0.01    5.88             0.03    2.33
     3  ENGRAD  ................      0.00    0.00             0.00    0.00             0.00    0.04
     1  COREPS  ................      0.06    0.85             0.00    0.00             0.06    0.63
     1  METS    ................      0.00    0.00             0.00    0.00             0.01    0.11
     1  CETS    ................      0.02    0.21             0.00    0.00             0.01    0.08
     1  POPUL   ................      0.00    0.00             0.00    0.00             0.01    0.14
     1  ENHESS  ................      3.06   41.88             0.34   32.35             3.66   37.81
     1  EXIT PROCEDURE .........      0.02    0.21             0.02    1.47             0.02    0.26


 Currently Open Files (EXIT00)
 ====================

 Unit    Access Format  Status   Type       Ident (file)
 -------------------------------------------------------
   3      SEQ    FORM   TRANSP  NORMAL      LOGFILE
                                          ( logfile )

 ***************************************************************************************************
 (LOGFILE)
 <Apr01-2020> <21:41:20>  DIRAC 2019.303  RunTime: Apr01-2020 21:41:20  Nodes: 1  Procs: 1
 <Apr01-2020> <21:41:20>  NORMAL TERMINATION
 <Apr01-2020> <21:41:20>  END
 <Apr01-2020> <21:41:21>  ADF 2019.303  RunTime: Apr01-2020 21:41:21  Nodes: 1  Procs: 1
 <Apr01-2020> <21:41:21>  Hydrogen (DZP)
 <Apr01-2020> <21:41:21>  RunType   : CREATE
 <Apr01-2020> <21:41:21>  Net Charge: 0 (Nuclei minus Electrons)
 <Apr01-2020> <21:41:21>  Symmetry  : ATOM
  Coordinates
    Atom         X           Y           Z   (Angstrom)
    1.H         0.000000    0.000000    0.000000
 <Apr01-2020> <21:41:21>  >>>> CORORT
 <Apr01-2020> <21:41:21>  >>>> CLSMAT
 <Apr01-2020> <21:41:21>  >>>> ORTHON
 <Apr01-2020> <21:41:21>  >>>> GENPT
 <Apr01-2020> <21:41:21>  Block Length=  64
 <Apr01-2020> <21:41:21>  >>>> PTBAS
 <Apr01-2020> <21:41:21>  >>>> CYCLE
 <Apr01-2020> <21:41:21>              |Error|         MaxErr       Wt(A-DIIS)
 <Apr01-2020> <21:41:21>      1      0.00000000      0.00000000
 <Apr01-2020> <21:41:21>      2      0.03300193      0.03300193
 <Apr01-2020> <21:41:21>      3      0.00595445      0.00595445    100.0
 <Apr01-2020> <21:41:21>      4      0.00102040      0.00102040      0.0
 <Apr01-2020> <21:41:21>      5      0.00000144      0.00000144      0.0
 <Apr01-2020> <21:41:21>      6      0.00000000      0.00000000      0.0
 <Apr01-2020> <21:41:21>  SCF converged
 <Apr01-2020> <21:41:21>      7      0.00000000      0.00000000      0.0
 <Apr01-2020> <21:41:21>  >>>> POPAN
 <Apr01-2020> <21:41:21>  >>>> DEBYE
 <Apr01-2020> <21:41:21>  NORMAL TERMINATION
 <Apr01-2020> <21:41:21>  END
 <Apr01-2020> <21:41:21>  DIRAC 2019.303  RunTime: Apr01-2020 21:41:21  Nodes: 1  Procs: 1
 <Apr01-2020> <21:41:22>  NORMAL TERMINATION
 <Apr01-2020> <21:41:22>  END
 <Apr01-2020> <21:41:22>  ADF 2019.303  RunTime: Apr01-2020 21:41:22  Nodes: 1  Procs: 1
 <Apr01-2020> <21:41:22>  Oxygen (DZP)
 <Apr01-2020> <21:41:22>  RunType   : CREATE
 <Apr01-2020> <21:41:22>  Net Charge: 0 (Nuclei minus Electrons)
 <Apr01-2020> <21:41:22>  Symmetry  : ATOM
  Coordinates
    Atom         X           Y           Z   (Angstrom)
    1.O         0.000000    0.000000    0.000000
 <Apr01-2020> <21:41:22>  >>>> CORORT
 <Apr01-2020> <21:41:22>  >>>> CLSMAT
 <Apr01-2020> <21:41:22>  >>>> ORTHON
 <Apr01-2020> <21:41:22>  >>>> GENPT
 <Apr01-2020> <21:41:22>  Block Length=  68
 <Apr01-2020> <21:41:22>  >>>> PTBAS
 <Apr01-2020> <21:41:22>  >>>> CYCLE
 <Apr01-2020> <21:41:22>              |Error|         MaxErr       Wt(A-DIIS)
 <Apr01-2020> <21:41:22>      1      0.00000000      0.00000000
 <Apr01-2020> <21:41:22>      2      5.97226838      4.42037532
 <Apr01-2020> <21:41:22>      3      2.82488776      2.02229401    100.0
 <Apr01-2020> <21:41:22>      4      0.81888656      0.45987420    100.0
 <Apr01-2020> <21:41:22>      5      0.89807529      0.54294788    100.0
 <Apr01-2020> <21:41:22>      6      0.01917167      0.01182613     10.9
 <Apr01-2020> <21:41:22>      7      0.00067434      0.00041526      0.0
 <Apr01-2020> <21:41:22>      8      0.00004941      0.00003093      0.0
 <Apr01-2020> <21:41:23>      9      0.00000137      0.00000077      0.0
 <Apr01-2020> <21:41:23>     10      0.00000003      0.00000002      0.0
 <Apr01-2020> <21:41:23>     11      0.00000000      0.00000000      0.0
 <Apr01-2020> <21:41:23>  SCF converged
 <Apr01-2020> <21:41:23>     12      0.00000000      0.00000000      0.0
 <Apr01-2020> <21:41:23>  >>>> POPAN
 <Apr01-2020> <21:41:23>  >>>> DEBYE
 <Apr01-2020> <21:41:23>  NORMAL TERMINATION
 <Apr01-2020> <21:41:23>  END
 <Apr01-2020> <21:41:23>  ADF 2019.303  RunTime: Apr01-2020 21:41:23  Nodes: 1  Procs: 4
 <Apr01-2020> <21:41:24>  *** (NO TITLE) ***
 <Apr01-2020> <21:41:24>  RunType   : GEOMETRY OPTIMIZATION
 <Apr01-2020> <21:41:24>  Net Charge: 0 (Nuclei minus Electrons)
 <Apr01-2020> <21:41:24>  Symmetry  : NOSYM
 <Apr01-2020> <21:41:24>  >>>> FRAGM
  Coordinates in Geometry Cycle 1
    Atom         X           Y           Z   (Angstrom)
    1.O         0.000000    0.000000    0.000000
    2.H         0.277400    0.892900    0.254400
    3.H         0.606800   -0.238300   -0.716900
 <Apr01-2020> <21:41:24>  >>>> CORORT
 <Apr01-2020> <21:41:24>  >>>> CLSMAT
 <Apr01-2020> <21:41:24>  >>>> ORTHON
 <Apr01-2020> <21:41:24>  >>>> GENPT
 <Apr01-2020> <21:41:24>  Block Length= 128
 <Apr01-2020> <21:41:24>  >>>> PTBAS
 <Apr01-2020> <21:41:24>  >>>> CYCLE
 <Apr01-2020> <21:41:24>              |Error|         MaxErr       Wt(A-DIIS)
 <Apr01-2020> <21:41:24>      1      2.19119985      1.13995089
 <Apr01-2020> <21:41:24>      2      0.76762134      0.31396300    100.0
 <Apr01-2020> <21:41:24>      3      0.12512946      0.04687185    100.0
 <Apr01-2020> <21:41:25>      4      0.05695975      0.02187694     21.1
 <Apr01-2020> <21:41:25>      5      0.01141804      0.00432578      3.4
 <Apr01-2020> <21:41:25>      6      0.00112579      0.00041647      0.0
 <Apr01-2020> <21:41:25>      7      0.00007972      0.00002786      0.0
 <Apr01-2020> <21:41:25>      8      0.00000181      0.00000066      0.0
 <Apr01-2020> <21:41:25>  SCF converged
 <Apr01-2020> <21:41:25>      9      0.00000021      0.00000006      0.0
 <Apr01-2020> <21:41:25>  >>>> TOTEN
 <Apr01-2020> <21:41:25>  >>>> POPAN
 <Apr01-2020> <21:41:25>  >>>> DEBYE
 <Apr01-2020> <21:41:25>  >>>> ENGRAD
 <Apr01-2020> <21:41:25>  current energy                               -0.51376088 Hartree
 <Apr01-2020> <21:41:25>  energy change                      -0.51376088     0.00100000    F
 <Apr01-2020> <21:41:25>  constrained gradient max            0.01293659     0.00100000    F
 <Apr01-2020> <21:41:25>  constrained gradient rms            0.00851907     0.00066667    F
 <Apr01-2020> <21:41:25>  gradient max                        0.01293659
 <Apr01-2020> <21:41:25>  gradient rms                        0.00851907
 <Apr01-2020> <21:41:25>  cart. step max                      0.00542526     0.01000000    T
 <Apr01-2020> <21:41:25>  cart. step rms                      0.00321649     0.00666667    T
  Coordinates in Geometry Cycle 2
    Atom         X           Y           Z   (Angstrom)
    1.O        -0.003240   -0.002434    0.001674
    2.H         0.277808    0.898325    0.257163
    3.H         0.609632   -0.241291   -0.721337
 <Apr01-2020> <21:41:25>  >>>> CORORT
 <Apr01-2020> <21:41:25>  >>>> CLSMAT
 <Apr01-2020> <21:41:25>  >>>> ORTHON
 <Apr01-2020> <21:41:25>  >>>> GENPT
 <Apr01-2020> <21:41:25>  Block Length= 128
 <Apr01-2020> <21:41:26>  >>>> PTBAS
 <Apr01-2020> <21:41:26>  >>>> CYCLE
 <Apr01-2020> <21:41:26>              |Error|         MaxErr       Wt(A-DIIS)
 <Apr01-2020> <21:41:26>      1      0.03043584      0.01406795
 <Apr01-2020> <21:41:26>      2      0.00490154      0.00145858    100.0
 <Apr01-2020> <21:41:26>      3      0.00744115      0.00290790    100.0
 <Apr01-2020> <21:41:26>      4      0.00087024      0.00026998      0.0
 <Apr01-2020> <21:41:26>      5      0.00018248      0.00006751      0.0
 <Apr01-2020> <21:41:26>      6      0.00000189      0.00000066      0.0
 <Apr01-2020> <21:41:26>  SCF converged
 <Apr01-2020> <21:41:26>      7      0.00000053      0.00000017      0.0
 <Apr01-2020> <21:41:26>  >>>> TOTEN
 <Apr01-2020> <21:41:27>  >>>> POPAN
 <Apr01-2020> <21:41:27>  >>>> DEBYE
 <Apr01-2020> <21:41:27>  >>>> ENGRAD
 <Apr01-2020> <21:41:27>  current energy                               -0.51383407 Hartree
 <Apr01-2020> <21:41:27>  energy change                      -0.00007319     0.00100000    T
 <Apr01-2020> <21:41:27>  constrained gradient max            0.00159026     0.00100000    F
 <Apr01-2020> <21:41:27>  constrained gradient rms            0.00097718     0.00066667    F
 <Apr01-2020> <21:41:27>  gradient max                        0.00159026
 <Apr01-2020> <21:41:27>  gradient rms                        0.00097718
 <Apr01-2020> <21:41:27>  cart. step max                      0.00187821     0.01000000    T
 <Apr01-2020> <21:41:27>  cart. step rms                      0.00110072     0.00666667    T
  Coordinates in Geometry Cycle 3
    Atom         X           Y           Z   (Angstrom)
    1.O        -0.004072   -0.003036    0.002118
    2.H         0.278678    0.897049    0.255592
    3.H         0.609594   -0.239413   -0.720210
 <Apr01-2020> <21:41:27>  >>>> CORORT
 <Apr01-2020> <21:41:27>  >>>> CLSMAT
 <Apr01-2020> <21:41:27>  >>>> ORTHON
 <Apr01-2020> <21:41:27>  >>>> GENPT
 <Apr01-2020> <21:41:27>  Block Length= 128
 <Apr01-2020> <21:41:27>  >>>> PTBAS
 <Apr01-2020> <21:41:27>  >>>> CYCLE
 <Apr01-2020> <21:41:27>              |Error|         MaxErr       Wt(A-DIIS)
 <Apr01-2020> <21:41:27>      1      0.00260612      0.00077788
 <Apr01-2020> <21:41:27>      2      0.00088243      0.00030003    100.0
 <Apr01-2020> <21:41:27>      3      0.00045709      0.00012169    100.0
 <Apr01-2020> <21:41:27>      4      0.00063455      0.00024726      0.0
 <Apr01-2020> <21:41:27>      5      0.00001132      0.00000278      0.0
 <Apr01-2020> <21:41:28>      6      0.00000033      0.00000011      0.0
 <Apr01-2020> <21:41:28>  SCF converged
 <Apr01-2020> <21:41:28>      7      0.00000010      0.00000003      0.0
 <Apr01-2020> <21:41:28>  >>>> TOTEN
 <Apr01-2020> <21:41:28>  >>>> POPAN
 <Apr01-2020> <21:41:28>  >>>> DEBYE
 <Apr01-2020> <21:41:28>  >>>> ENGRAD
 <Apr01-2020> <21:41:28>  current energy                               -0.51383769 Hartree
 <Apr01-2020> <21:41:28>  energy change                      -0.00000362     0.00100000    T
 <Apr01-2020> <21:41:28>  constrained gradient max            0.00040550     0.00100000    T
 <Apr01-2020> <21:41:28>  constrained gradient rms            0.00027393     0.00066667    T
 <Apr01-2020> <21:41:28>  gradient max                        0.00040550
 <Apr01-2020> <21:41:28>  gradient rms                        0.00027393
 <Apr01-2020> <21:41:28>  cart. step max                      0.00075884     0.01000000    T
 <Apr01-2020> <21:41:28>  cart. step rms                      0.00045670     0.00666667    T
 <Apr01-2020> <21:41:28>  GEOMETRY CONVERGED
 <Apr01-2020> <21:41:28>  Calculating Energy Terms for Final Geometry
  Coordinates in Geometry Cycle 3
    Atom         X           Y           Z   (Angstrom)
    1.O        -0.004072   -0.003036    0.002118
    2.H         0.278678    0.897049    0.255592
    3.H         0.609594   -0.239413   -0.720210
 <Apr01-2020> <21:41:28>  >>>> CORORT
 <Apr01-2020> <21:41:28>  >>>> CLSMAT
 <Apr01-2020> <21:41:28>  >>>> ORTHON
 <Apr01-2020> <21:41:28>  >>>> GENPT
 <Apr01-2020> <21:41:28>  Block Length= 128
 <Apr01-2020> <21:41:28>  >>>> PTBAS
 <Apr01-2020> <21:41:28>  >>>> CYCLE
 <Apr01-2020> <21:41:28>              |Error|         MaxErr       Wt(A-DIIS)
 <Apr01-2020> <21:41:28>      1      0.00000002      0.00000001
 <Apr01-2020> <21:41:28>      2      0.00000003      0.00000001    100.0
 <Apr01-2020> <21:41:28>  SCF converged
 <Apr01-2020> <21:41:29>      3      0.00000001      0.00000000    100.0
 <Apr01-2020> <21:41:29>  >>>> TOTEN
 <Apr01-2020> <21:41:29>  >>>> POPAN
 <Apr01-2020> <21:41:29>  >>>> DEBYE
 <Apr01-2020> <21:41:29>  >>>> AMETS
 <Apr01-2020> <21:41:29>  >>>> POPUL
 <Apr01-2020> <21:41:29>   Bond Energy          -0.51383769 a.u.
 <Apr01-2020> <21:41:29>   Bond Energy         -13.98223496 eV
 <Apr01-2020> <21:41:29>   Bond Energy        -322.44       kcal/mol
 <Apr01-2020> <21:41:29>  >>>> ENHESS
 <Apr01-2020> <21:41:29>  === NUCLEUS:     1
 <Apr01-2020> <21:41:30>  === NUCLEUS:     2
 <Apr01-2020> <21:41:31>  === NUCLEUS:     3
 <Apr01-2020> <21:41:33>  >>>> CALC_HESS_PMAT
 <Apr01-2020> <21:41:33>  >>>> CALC_HESS_WMAT
 <Apr01-2020> <21:41:33>  Internal error in SymmetryUtils: NO INDEPENDENT BASIS. PNTGRP
 <Apr01-2020> <21:41:33>  Failed to detect system symmetry. Falling back to NOSYM ...
 <Apr01-2020> <21:41:33>  NORMAL TERMINATION
 <Apr01-2020> <21:41:33>  END
